 Q-Chem 5.2, Q-Chem, Inc., Pleasanton, CA (2019)
 Q-Chem 5.2.1 for Intel X86 EM64T Linux

User input:
--------------------------------------------------------------
$molecule
0 1
C        -3.22340849880000    1.54317487060000   -0.51080681940000
C        -2.12896284340000    1.65651107790000    0.22767588280000
C        -0.97270900080000    0.77746080190000    0.15726085670000
C         0.36112652520000    1.24593088710000    0.22885126750000
C         1.17650344420000    0.16085806840000    0.03968230660000
C         2.64122200110000    0.05721979070000    0.00496945500000
O         3.37250110720000    0.99820673950000    0.15358200870000
O         3.11171057430000   -1.18527501560000   -0.20792526250000
O         0.42285149070000   -0.95509640660000   -0.13135617510000
C        -0.88009151340000   -0.59319263290000   -0.05099086600000
C        -1.82788501280000   -1.67940729360000   -0.12009448150000
C        -3.09121041270000   -1.65049952140000    0.29165497330000
H        -4.02446723760000    2.25842748360000   -0.44017589010000
H        -3.35189456150000    0.74201840150000   -1.21891879170000
H        -2.00789407960000    2.49960924120000    0.89591669590000
H         0.68489130780000    2.25461533780000    0.38249434080000
H         2.39071972200000   -1.82456584650000   -0.30362758200000
H        -1.40096703340000   -2.59803451130000   -0.50312176150000
H        -3.53529420060000   -0.76631808240000    0.71295037410000
H        -3.71340645940000   -2.52549165550000    0.22614281320000
$end

$rem
BASIS = 6-31G*
GUI = 2
METHOD = B3LYP
PRINT_ORBITALS false
MOLDEN_FORMAT false
--------------------------------------------------------------

             Standard Nuclear Orientation (Angstroms)
    I     Atom           X                Y                Z
 ----------------------------------------------------------------
    1      C       3.1779401958     1.4455603502     0.5444216686
    2      C       2.0827743996     1.6122848239    -0.1827838861
    3      C       0.9052785165     0.7602458286    -0.1364847736
    4      C      -0.4167792448     1.2639258245    -0.1831361997
    5      C      -1.2580349244     0.1933648265    -0.0275872723
    6      C      -2.7246834058     0.1249334374     0.0124839470
    7      O      -3.4329678854     1.0884785265    -0.0980837575
    8      O      -3.2249764300    -1.1123054401     0.1840177684
    9      O      -0.5316436674    -0.9463375339     0.0990385186
   10      C       0.7795019089    -0.6142419497     0.0235190058
   11      C       1.7001750629    -1.7254148837     0.0481314168
   12      C       2.9616283592    -1.7131995526    -0.3701396744
   13      H       3.9962578717     2.1427782189     0.4942862864
   14      H       3.2900924647     0.6167185074     1.2228212483
   15      H       1.9792976695     2.4814227657    -0.8198943532
   16      H      -0.7160155942     2.2851714257    -0.2988478178
   17      H      -2.5197089566    -1.7722970450     0.2524895289
   18      H       1.2524430425    -2.6462406565     0.4009213789
   19      H       3.4254559473    -0.8258482406    -0.7625025931
   20      H       3.5620762102    -2.6051416262    -0.3395993061
 ----------------------------------------------------------------

    9    -573.3875052384      6.40e-06  Convergence criterion met
 Total energy in the final basis set =     -573.3875052384

                    Orbital Energies (a.u.)
 --------------------------------------------------------------

 Alpha MOs
 -- Occupied --
-19.2466 -19.1923 -19.1306 -10.3224 -10.2695 -10.2590 -10.2155 -10.2146
-10.2095 -10.2093 -10.2005 -10.1946  -1.1495  -1.0998  -1.0199  -0.8484
 -0.8230  -0.7783  -0.7550  -0.6587  -0.6432  -0.6189  -0.6085  -0.5657
 -0.5365  -0.5092  -0.4945  -0.4798  -0.4490  -0.4483  -0.4367  -0.4349
 -0.4264  -0.4125  -0.3859  -0.3801  -0.3718  -0.3304  -0.3203  -0.3105
 -0.2772  -0.2710  -0.2222

          Ground-State Mulliken Net Atomic Charges

     Atom                 Charge (a.u.)
  ----------------------------------------
      1 C                    -0.334309
      2 C                    -0.129209
      3 C                     0.051361
      4 C                    -0.199716
      5 C                     0.249060
      6 C                     0.561302
      7 O                    -0.454025
      8 O                    -0.581227
      9 O                    -0.511539
     10 C                     0.302744
     11 C                    -0.135587
     12 C                    -0.339032
     13 H                     0.150818
     14 H                     0.158761
     15 H                     0.144881
     16 H                     0.173364
     17 H                     0.424206
     18 H                     0.146778
     19 H                     0.166768
     20 H                     0.154601
  ----------------------------------------
  Sum of atomic charges =     0.000000

                    Cartesian Multipole Moments
 -----------------------------------------------------------------
    Charge (ESU x 10^10)
                 0.0000
    Dipole Moment (Debye)
         X       5.0683      Y      -1.5864      Z       0.0896
       Tot       5.3115
    Quadrupole Moments (Debye-Ang)
        XX     -80.7027     XY       5.3307     YY     -61.4387
        XZ      -0.4372     YZ      -1.9068     ZZ     -68.9881

 Total job time:  23.96s(wall), 23.87s(cpu)
        *  Thank you very much for using Q-Chem.  Have a nice day.  *
