 Q-Chem 5.2, Q-Chem, Inc., Pleasanton, CA (2019)
 Q-Chem 5.2.1 for Intel X86 EM64T Linux

User input:
--------------------------------------------------------------
$molecule
0 1
C         5.92530444190000    0.64677538830000    0.45141647490000
C         5.04371705620000   -0.12449008640000   -0.17626295360000
C         3.59044480600000   -0.05083918470000   -0.09039880680000
C         2.86532278340000    0.98294914480000    0.51271477540000
F         3.49376144900000    2.02012377190000    1.07814327810000
C         1.47747776170000    0.98089139950000    0.54411058230000
F         0.83733528550000    1.98191981400000    1.15787040640000
C         0.73668279560000   -0.05428964180000   -0.02004110670000
C        -0.73662901260000   -0.05439968360000    0.01993336910000
C        -1.47757470360000    0.98073936300000   -0.54409111980000
F        -0.83756762170000    1.98195409830000   -1.15768526280000
C        -2.86541991890000    0.98256897210000   -0.51283546490000
F        -3.49382198360000    2.01960114880000   -1.07856431390000
C        -3.59050335720000   -0.05145790980000    0.08996743850000
C        -5.04373278890000   -0.12584107830000    0.17544903560000
C        -5.92578604930000    0.64945410860000   -0.44663623710000
C        -2.82968244430000   -1.08165133730000    0.66039803320000
F        -3.45755343620000   -2.09913910800000    1.26441724290000
C        -1.44447339010000   -1.09051887270000    0.62513739510000
F        -0.77361235210000   -2.08952989290000    1.20758006520000
C         1.44462209550000   -1.09015510380000   -0.62558589110000
F         0.77384542550000   -2.08912922890000   -1.20818784410000
C         2.82982525730000   -1.08099125440000   -0.66108461600000
F         3.45793431020000   -2.09814435850000   -1.26541729180000
H         6.98019735400000    0.48797815090000    0.30775105210000
H         5.65263619100000    1.44253665210000    1.12029909580000
H         5.40039405080000   -0.91798560890000   -0.81916653860000
H        -5.40015147100000   -0.92344550380000    0.81339002730000
H        -5.65374319520000    1.44996686210000   -1.11005094240000
H        -6.98056269770000    0.48932402350000   -0.30357825660000
$end

$rem
BASIS = 6-31G*
GUI = 2
METHOD = B3LYP
PRINT_ORBITALS false
MOLDEN_FORMAT false
--------------------------------------------------------------

             Standard Nuclear Orientation (Angstroms)
    I     Atom           X                Y                Z
 ----------------------------------------------------------------
    1      C       5.9276255776    -0.6400619670    -0.4196795790
    2      C       5.0427109050     0.1313123476     0.2031654299
    3      C       3.5899164971     0.0576602183     0.1095646163
    4      C       2.8680111015    -0.9762190402    -0.4972405662
    5      F       3.4994461558    -2.0134902699    -1.0591426249
    6      C       1.4803532548    -0.9741543098    -0.5360371185
    7      F       0.8434832823    -1.9752761078    -1.1530405073
    8      C       0.7365702874     0.0611241036     0.0239893117
    9      C      -0.7365074024     0.0612404894    -0.0238412360
   10      C      -1.4804601651    -0.9738011773     0.5363908783
   11      F      -0.8437438028    -1.9749225285     1.1535505802
   12      C      -2.8681189899    -0.9756237786     0.4977351016
   13      F      -3.4995388332    -2.0125592776     1.0602720102
   14      C      -3.5899677315     0.0583121970    -0.1090924833
   15      C      -5.0427199493     0.1326941973    -0.2023343839
   16      C      -5.9280854125    -0.6424930274     0.4151633333
   17      C      -2.8261059154     1.0884070394    -0.6756238280
   18      F      -3.4507372645     2.1058028641    -1.2831466385
   19      C      -1.4411045041     1.0972682355    -0.6329783171
   20      F      -0.7671375253     2.0961795152    -1.2119962629
   21      C       1.4412802596     1.0970810358     0.6331336980
   22      F       0.7674158590     2.0961549003     1.2119893467
   23      C       2.8262743369     1.0879108857     0.6760201671
   24      F       3.4511614825     2.1051559577     1.2835297731
   25      H       6.9817388915    -0.4812507261    -0.2704164442
   26      H       5.6585205130    -1.4359286940    -1.0898784612
   27      H       5.3959620337     0.9249084156     0.8478339983
   28      H      -5.3957240538     0.9301988544    -0.8422954996
   29      H      -5.6595918059    -1.4429011730     1.0801483239
   30      H      -6.9820826612    -0.4823768530     0.2664568486
 ----------------------------------------------------------------

    9   -1411.9290841172      4.25e-06  Convergence criterion met
 Total energy in the final basis set =    -1411.9290841172

                    Orbital Energies (a.u.)
 --------------------------------------------------------------

 Alpha MOs
 -- Occupied --
-24.7342 -24.7341 -24.7330 -24.7330 -24.7327 -24.7327 -24.7326 -24.7326
-10.3011 -10.3011 -10.3010 -10.3010 -10.2995 -10.2995 -10.2985 -10.2985
-10.2412 -10.2409 -10.2369 -10.2369 -10.2114 -10.2114 -10.1971 -10.1971
 -1.2562  -1.2549  -1.2543  -1.2531  -1.2414  -1.2407  -1.2391  -1.2389
 -0.9136  -0.8976  -0.8418  -0.8149  -0.7785  -0.7748  -0.7736  -0.7462
 -0.6930  -0.6588  -0.6572  -0.6474  -0.6104  -0.6082  -0.5919  -0.5813
 -0.5760  -0.5634  -0.5607  -0.5536  -0.5396  -0.5380  -0.5189  -0.5157
 -0.5065  -0.5014  -0.4960  -0.4899  -0.4868  -0.4791  -0.4772  -0.4696
 -0.4657  -0.4652  -0.4601  -0.4435  -0.4413  -0.4379  -0.4354  -0.4179
 -0.4142  -0.4088  -0.4041  -0.3882  -0.3864  -0.3699  -0.3664  -0.3625
 -0.3585  -0.3289  -0.3107  -0.2573  -0.2527  -0.2520  -0.2393

          Ground-State Mulliken Net Atomic Charges

     Atom                 Charge (a.u.)
  ----------------------------------------
      1 C                    -0.344293
      2 C                    -0.106802
      3 C                     0.026578
      4 C                     0.260618
      5 F                    -0.271756
      6 C                     0.310545
      7 F                    -0.269831
      8 C                    -0.095010
      9 C                    -0.095010
     10 C                     0.310563
     11 F                    -0.269832
     12 C                     0.260592
     13 F                    -0.271755
     14 C                     0.026844
     15 C                    -0.106787
     16 C                    -0.344474
     17 C                     0.243194
     18 F                    -0.272004
     19 C                     0.310351
     20 F                    -0.268943
     21 C                     0.310365
     22 F                    -0.268942
     23 C                     0.243317
     24 F                    -0.271993
     25 H                     0.152780
     26 H                     0.168297
     27 H                     0.156142
     28 H                     0.156140
     29 H                     0.168348
     30 H                     0.152759
  ----------------------------------------
  Sum of atomic charges =     0.000000

                    Cartesian Multipole Moments
 -----------------------------------------------------------------
    Charge (ESU x 10^10)
                 0.0000
    Dipole Moment (Debye)
         X       0.0009      Y      -0.1698      Z      -0.0008
       Tot       0.1698
    Quadrupole Moments (Debye-Ang)
        XX    -107.0217     XY       0.0024     YY    -136.1460
        XZ      -0.5815     YZ       0.0045     ZZ    -129.3148

 Total job time:  92.40s(wall), 92.15s(cpu)
        *  Thank you very much for using Q-Chem.  Have a nice day.  *
