 Q-Chem 5.4, Q-Chem, Inc., Pleasanton, CA (2021)
 Q-Chem 5.4.2 for Intel X86 EM64T Linux

User input:
--------------------------------------------------------------
$molecule
0 1
C           -1.41233859380000        3.40836848470000        0.05992235720000
C           -2.11633019350000        2.28831996010000       -0.04719691550000
C           -1.59507917610000        0.92526814470000       -0.03043240360000
C           -2.49901253050000       -0.13800038860000       -0.01385269570000
C           -2.06759614410000       -1.45526322710000        0.00431919030000
C           -3.04847745620000       -2.58776024460000        0.04381341690000
C           -0.70471648690000       -1.71074952290000        0.00270268690000
C            0.22559236570000       -0.67027472910000       -0.01673391860000
C            1.63787825020000       -1.02309745050000       -0.02066783880000
C            2.69152183980000       -0.22141930500000       -0.00006609460000
F            2.71479867080000        1.10643312050000        0.02891876570000
F            3.94701610660000       -0.67077093280000       -0.00371508570000
C           -0.23157905850000        0.64453669550000       -0.03473217710000
H           -1.89132411230000        4.37228066090000        0.04017276210000
H           -0.34223692990000        3.41821593490000        0.17497542330000
H           -3.19312575840000        2.35410285040000       -0.14804740110000
H           -3.55964468450000        0.07208630530000       -0.01340791720000
H           -4.03458169980000       -2.26046590440000       -0.27565843450000
H           -3.13023844040000       -2.97359013340000        1.06027584430000
H           -2.72221391840000       -3.40359696360000       -0.59776564890000
H           -0.35719190240000       -2.73397927800000        0.01491281320000
H            1.86959141330000       -2.07856112100000       -0.03820691600000
H            0.47253052070000        1.45745374720000       -0.06163460660000
$end

$rem
BASIS = 6-31G*
GUI = 2
METHOD = B3LYP
PRINT_ORBITALS false
MOLDEN_FORMAT false
$end
--------------------------------------------------------------

             Standard Nuclear Orientation (Angstroms)
    I     Atom           X                Y                Z
 ----------------------------------------------------------------
    1      C      -1.2307979547    -3.4411532867    -0.0597222281
    2      C      -1.9534556559    -2.3331091496     0.0479413479
    3      C      -1.4551655597    -0.9614946698     0.0313696110
    4      C      -2.3768263760     0.0864539279     0.0153869303
    5      C      -1.9675900698     1.4107781903    -0.0025740074
    6      C      -2.9673580529     2.5266598716    -0.0414261661
    7      C      -0.6091908499     1.6891069310    -0.0013525603
    8      C       0.3384600928     0.6643908700     0.0174842230
    9      C       1.7446253816     1.0408710909     0.0210327004
   10      C       2.8115711515     0.2569991106    -0.0001460010
   11      F       2.8571254471    -1.0702676925    -0.0294996483
   12      F       4.0593463898     0.7273626211     0.0031972167
   13      C      -0.0965688325    -0.6579146319     0.0352809770
   14      H      -1.6935278655    -4.4129756620    -0.0400713428
   15      H      -0.1607215667    -3.4330047716    -0.1751426639
   16      H      -3.0289602937    -2.4169859388     0.1491409327
   17      H      -3.4337824231    -0.1414080430     0.0152465360
   18      H      -3.9477186468     2.1827727893     0.2782927866
   19      H      -3.0559354774     2.9113332218    -1.0577557788
   20      H      -2.6546144651     3.3476879784     0.6002633554
   21      H      -0.2788965057     2.7180296626    -0.0134030538
   22      H       1.9585937909     2.1000711357     0.0387796375
   23      H       0.6210972744    -1.4589042555     0.0617225162
 ----------------------------------------------------------------

    9    -624.8334604123      6.80e-06  Convergence criterion met
 Total energy in the final basis set =     -624.8334604123

                    Orbital Energies (a.u.)
 --------------------------------------------------------------

 Alpha MOs
 -- Occupied --
-24.7436 -24.7327 -10.3554 -10.2043 -10.2016 -10.1947 -10.1937 -10.1888
-10.1851 -10.1828 -10.1825 -10.1822 -10.1788  -1.2841  -1.2230  -0.8710
 -0.8134  -0.7968  -0.7527  -0.7288  -0.6885  -0.6451  -0.6235  -0.6001
 -0.5724  -0.5466  -0.5211  -0.5177  -0.5009  -0.4753  -0.4616  -0.4397
 -0.4355  -0.4277  -0.4256  -0.4195  -0.4182  -0.3997  -0.3856  -0.3737
 -0.3680  -0.3413  -0.3391  -0.3163  -0.2759  -0.2263  -0.2176

          Ground-State Mulliken Net Atomic Charges

     Atom                 Charge (a.u.)
  ----------------------------------------
      1 C                    -0.352424
      2 C                    -0.115350
      3 C                     0.187323
      4 C                    -0.257633
      5 C                     0.185018
      6 C                    -0.529501
      7 C                    -0.251334
      8 C                     0.205407
      9 C                    -0.300035
     10 C                     0.544954
     11 F                    -0.234046
     12 F                    -0.250253
     13 C                    -0.265234
     14 H                     0.143890
     15 H                     0.147107
     16 H                     0.126177
     17 H                     0.119121
     18 H                     0.157186
     19 H                     0.167956
     20 H                     0.159823
     21 H                     0.118621
     22 H                     0.158550
     23 H                     0.134676
  ----------------------------------------
  Sum of atomic charges =     0.000000

                    Cartesian Multipole Moments
 -----------------------------------------------------------------
    Charge (ESU x 10^10)
                 0.0000
    Dipole Moment (Debye)
         X      -1.2198      Y       0.9145      Z      -0.0339
       Tot       1.5249
    Quadrupole Moments (Debye-Ang)
        XX     -72.3509     XY      -0.1663     YY     -67.3585
        XZ      -0.0761     YZ      -0.0889     ZZ     -77.0168

 Total job time:  46.03s(wall), 43.84s(cpu)
        *  Thank you very much for using Q-Chem.  Have a nice day.  *
