 Q-Chem 5.4, Q-Chem, Inc., Pleasanton, CA (2021)
 Q-Chem 5.4.2 for Intel X86 EM64T Linux

User input:
--------------------------------------------------------------
$molecule
0 1
C           -1.41188234660000        3.40850069160000       -0.06157347470000
C           -2.11603643820000        2.28880167500000        0.04884752660000
C           -1.59510539990000        0.92564973060000        0.03102130920000
C           -2.49952243310000       -0.13756856550000        0.01279632560000
C           -2.06834985900000       -1.45447610410000       -0.00681820470000
C           -3.04616424330000       -2.58983340260000       -0.04190544770000
C           -0.70512323550000       -1.71022266160000       -0.00463231410000
C            0.22525545240000       -0.67025260630000        0.01646914830000
C            1.63755005850000       -1.02322281210000        0.02029495000000
C            2.69121017550000       -0.22149646960000        0.00018875690000
F            2.71426739050000        1.10637088450000       -0.02818016280000
F            3.94675702710000       -0.67060122420000        0.00390949730000
C           -0.23184782880000        0.64477264460000        0.03571554350000
H           -1.89035874550000        4.37268137840000       -0.04085080280000
H           -0.34227301190000        3.41759392720000       -0.18091400250000
H           -3.19239972110000        2.35509404550000        0.15356542110000
H           -3.55999499920000        0.07329041590000        0.01182928520000
H           -4.05668585000000       -2.24059382080000        0.15337798040000
H           -2.78542222020000       -3.34347071720000        0.69884691950000
H           -3.03076411240000       -3.06644655560000       -1.02201114700000
H           -0.35844638410000       -2.73373086920000       -0.01799249420000
H            1.86904352660000       -2.07872394450000        0.03730594240000
H            0.47232092370000        1.45760217490000        0.06367387360000
$end

$rem
BASIS = 6-31G*
GUI = 2
METHOD = B3LYP
PRINT_ORBITALS false
MOLDEN_FORMAT false
$end
--------------------------------------------------------------

             Standard Nuclear Orientation (Angstroms)
    I     Atom           X                Y                Z
 ----------------------------------------------------------------
    1      C      -1.2302987564    -3.4413796049     0.0612751058
    2      C      -1.9531546073    -2.3337045283    -0.0495716959
    3      C      -1.4552300476    -0.9619800237    -0.0318753464
    4      C      -2.3774072197     0.0858794694    -0.0141211610
    5      C      -1.9684511209     1.4098567580     0.0053475852
    6      C      -2.9652334186     2.5286138711     0.0399286934
    7      C      -0.6097183276     1.6884957140     0.0034940825
    8      C       0.3380266199     0.6643172687    -0.0171339821
    9      C       1.7441856569     1.0409910997    -0.0206332997
   10      C       2.8111756674     0.2571043813    -0.0000673211
   11      F       2.8565557350    -1.0701816676     0.0285776557
   12      F       4.0589921543     0.7272627362    -0.0035252812
   13      C      -0.0968882812    -0.6582140714    -0.0362422855
   14      H      -1.6924843978    -4.4134757998     0.0406132786
   15      H      -0.1607218729    -3.4324574265     0.1809190038
   16      H      -3.0282206985    -2.4181123477    -0.1545795621
   17      H      -3.4341834391    -0.1427862811    -0.0134102719
   18      H      -3.9696822523     2.1623883538    -0.1555687011
   19      H      -2.7169928509     3.2863833143    -0.7009031131
   20      H      -2.9581315203     3.0056129051     1.0199419219
   21      H      -0.2803093493     2.7176927523     0.0167442194
   22      H       1.9578981063     2.1002331700    -0.0377932992
   23      H       0.6208602813    -1.4590902622    -0.0638370976
 ----------------------------------------------------------------

    9    -624.8334587731      6.83e-06  Convergence criterion met
 Total energy in the final basis set =     -624.8334587731

                    Orbital Energies (a.u.)
 --------------------------------------------------------------

 Alpha MOs
 -- Occupied --
-24.7436 -24.7327 -10.3555 -10.2043 -10.2016 -10.1947 -10.1937 -10.1888
-10.1850 -10.1829 -10.1825 -10.1822 -10.1787  -1.2841  -1.2230  -0.8710
 -0.8134  -0.7967  -0.7527  -0.7288  -0.6885  -0.6451  -0.6235  -0.6001
 -0.5725  -0.5466  -0.5211  -0.5177  -0.5009  -0.4753  -0.4616  -0.4398
 -0.4355  -0.4277  -0.4257  -0.4194  -0.4182  -0.3997  -0.3856  -0.3737
 -0.3679  -0.3413  -0.3391  -0.3163  -0.2759  -0.2262  -0.2176

          Ground-State Mulliken Net Atomic Charges

     Atom                 Charge (a.u.)
  ----------------------------------------
      1 C                    -0.352344
      2 C                    -0.115547
      3 C                     0.187723
      4 C                    -0.258699
      5 C                     0.185171
      6 C                    -0.529891
      7 C                    -0.250520
      8 C                     0.205133
      9 C                    -0.299958
     10 C                     0.544995
     11 F                    -0.234042
     12 F                    -0.250224
     13 C                    -0.265243
     14 H                     0.143868
     15 H                     0.147087
     16 H                     0.126218
     17 H                     0.119328
     18 H                     0.156617
     19 H                     0.161589
     20 H                     0.166872
     21 H                     0.118633
     22 H                     0.158533
     23 H                     0.134699
  ----------------------------------------
  Sum of atomic charges =     0.000000

                    Cartesian Multipole Moments
 -----------------------------------------------------------------
    Charge (ESU x 10^10)
                 0.0000
    Dipole Moment (Debye)
         X      -1.2086      Y       0.9242      Z       0.0216
       Tot       1.5216
    Quadrupole Moments (Debye-Ang)
        XX     -72.4065     XY      -0.1655     YY     -67.3185
        XZ       0.1182     YZ       0.0659     ZZ     -77.0151

 Total job time:  38.21s(wall), 37.57s(cpu)
        *  Thank you very much for using Q-Chem.  Have a nice day.  *
