 Q-Chem 5.2, Q-Chem, Inc., Pleasanton, CA (2019)
 Q-Chem 5.2.1 for Intel X86 EM64T Linux

User input:
--------------------------------------------------------------
$molecule
0 1
C         4.06587781480000   -2.06108733090000    0.08079514640000
C         4.17201045060000   -0.73967916880000    0.02746656020000
C         3.02628244700000    0.16421087930000   -0.00746522740000
C         3.22007917610000    1.54869573040000   -0.04965930040000
C         2.11292088240000    2.37858430190000   -0.07886665400000
C         0.85132313120000    1.81252200970000   -0.06571762070000
C         0.74843466290000    0.42001384370000   -0.02476604360000
C        -0.57089680440000   -0.23087074170000   -0.01104114830000
C        -0.67893219270000   -1.62265375890000   -0.00847392460000
C        -1.94339400000000   -2.18327661280000    0.00320090620000
C        -3.05008989260000   -1.35292796400000    0.01427388000000
C        -2.85333290410000    0.03138810280000    0.01257625150000
C        -3.93974492280000    1.00661617940000    0.02568398280000
C        -5.23935000740000    0.74332186310000    0.06838750320000
N        -1.63397925410000    0.56349314240000   -0.00189318240000
N         1.81066678510000   -0.37398785740000    0.00319852560000
H         4.92869749470000   -2.70422483780000    0.10640234780000
H         3.09716965910000   -2.52904527130000    0.10074459890000
H         5.14245249350000   -0.26074078790000    0.00850309660000
H         4.22014579300000    1.95597187490000   -0.05846459760000
H         2.23369530000000    3.45241191940000   -0.11129090500000
H        -0.04769595810000    2.40559369590000   -0.08624200880000
H         0.21687828860000   -2.22053659290000   -0.01686351670000
H        -2.06722223150000   -3.25730922980000    0.00351849110000
H        -4.04528955490000   -1.76739103590000    0.02252491560000
H        -3.59255972110000    2.03072356160000    0.00054994070000
H        -5.63283807220000   -0.25867457300000    0.09810083330000
H        -5.96965176510000    1.53431552700000    0.07651360690000
$end

$rem
BASIS = 6-31G*
GUI = 2
METHOD = B3LYP
PRINT_ORBITALS false
MOLDEN_FORMAT false
--------------------------------------------------------------

             Standard Nuclear Orientation (Angstroms)
    I     Atom           X                Y                Z
 ----------------------------------------------------------------
    1      C       4.0836261277    -2.0327802298     0.0572786301
    2      C       4.1826850382    -0.7100416533     0.0293932278
    3      C       3.0321398409     0.1881106418     0.0070703453
    4      C       3.2184709037     1.5741788538    -0.0081435127
    5      C       2.1068800657     2.3984450928    -0.0259921550
    6      C       0.8483770610     1.8253900656    -0.0285268240
    7      C       0.7530011513     0.4318175000    -0.0143493401
    8      C      -0.5627694445    -0.2263678826    -0.0181412386
    9      C      -0.6631490624    -1.6185159329    -0.0423474606
   10      C      -1.9245403593    -2.1861201984    -0.0462643544
   11      C      -3.0358256938    -1.3621548604    -0.0238296704
   12      C      -2.8466886910     0.0229931850     0.0014538004
   13      C      -3.9384961133     0.9918814188     0.0287453967
   14      C      -5.2367858936     0.7207689242     0.0613417947
   15      N      -1.6302368081     0.5618930956     0.0018592165
   16      N       1.8194739973    -0.3567893492     0.0027593115
   17      H       4.9498693914    -2.6715908270     0.0741015502
   18      H       3.1174399052    -2.5062877508     0.0645530143
   19      H       5.1505408721    -0.2255650934     0.0233193422
   20      H       4.2163062923     1.9869755202    -0.0053011750
   21      H       2.2218635052     3.4733346039    -0.0376064422
   22      H      -0.0538086118     2.4138515916    -0.0413581413
   23      H       0.2359653630    -2.2112571186    -0.0585284253
   24      H      -2.0424533827    -3.2606227670    -0.0667666304
   25      H      -4.0287525420    -1.7821001134    -0.0273430670
   26      H      -3.5968611597     2.0181521565     0.0243697663
   27      H      -5.6248619595    -0.2837334902     0.0705322088
   28      H      -5.9714575807     1.5074875155     0.0815664690
 ----------------------------------------------------------------

    9    -650.1884022180      2.70e-06  Convergence criterion met
 Total energy in the final basis set =     -650.1884022180

                    Orbital Energies (a.u.)
 --------------------------------------------------------------

 Alpha MOs
 -- Occupied --
-14.3229 -14.3215 -10.2257 -10.2239 -10.2223 -10.2216 -10.2029 -10.2017
-10.1949 -10.1932 -10.1885 -10.1881 -10.1869 -10.1854 -10.1846 -10.1779
 -0.9585  -0.9409  -0.8152  -0.8066  -0.7999  -0.7895  -0.7481  -0.7244
 -0.6589  -0.6475  -0.6306  -0.6048  -0.5673  -0.5643  -0.5197  -0.5006
 -0.4961  -0.4810  -0.4685  -0.4538  -0.4453  -0.4247  -0.4227  -0.4193
 -0.4083  -0.3965  -0.3952  -0.3803  -0.3689  -0.3579  -0.3477  -0.3197
 -0.3023  -0.2920  -0.2703  -0.2635  -0.2463  -0.2366  -0.2201

          Ground-State Mulliken Net Atomic Charges

     Atom                 Charge (a.u.)
  ----------------------------------------
      1 C                    -0.333366
      2 C                    -0.110014
      3 C                     0.331112
      4 C                    -0.186359
      5 C                    -0.096951
      6 C                    -0.155099
      7 C                     0.265828
      8 C                     0.264097
      9 C                    -0.154386
     10 C                    -0.100421
     11 C                    -0.175368
     12 C                     0.316793
     13 C                    -0.093584
     14 C                    -0.347345
     15 N                    -0.584199
     16 N                    -0.584965
     17 H                     0.141443
     18 H                     0.165533
     19 H                     0.125082
     20 H                     0.134798
     21 H                     0.140130
     22 H                     0.162886
     23 H                     0.165069
     24 H                     0.140464
     25 H                     0.134925
     26 H                     0.141766
     27 H                     0.142998
     28 H                     0.149134
  ----------------------------------------
  Sum of atomic charges =     0.000000

                    Cartesian Multipole Moments
 -----------------------------------------------------------------
    Charge (ESU x 10^10)
                 0.0000
    Dipole Moment (Debye)
         X      -0.1198      Y      -0.1009      Z      -0.0439
       Tot       0.1627
    Quadrupole Moments (Debye-Ang)
        XX     -76.7701     XY       5.7152     YY     -81.1155
        XZ      -0.0284     YZ      -0.0118     ZZ     -96.8555

 Total job time:  46.36s(wall), 46.22s(cpu)
        *  Thank you very much for using Q-Chem.  Have a nice day.  *
