 Q-Chem 5.2, Q-Chem, Inc., Pleasanton, CA (2019)
 Q-Chem 5.2.1 for Intel X86 EM64T Linux

User input:
--------------------------------------------------------------
$molecule
0 1
C        -1.93886924930000   -2.16225584190000   -0.54335175630000
C        -1.86988853540000   -0.99980031080000    0.09204966760000
C        -0.74434011350000   -0.08767459390000    0.07702026170000
C        -0.86649252580000    1.32176901070000    0.12610622100000
C        -2.11027136140000    2.12518951680000    0.26000669700000
N         0.31772166100000    1.89604134530000    0.01277464740000
N         1.20761495150000    0.91541347610000   -0.10872206030000
C         2.60214747090000    1.23330415360000   -0.20718120720000
C         0.62842909260000   -0.31375731620000   -0.06826119860000
C         1.43892107010000   -1.51093179560000   -0.11027446480000
C         1.13835837920000   -2.65886730330000    0.48465382370000
H        -2.82741168990000   -2.76952385000000   -0.50991240640000
H        -1.11573635620000   -2.54509544210000   -1.12243023530000
H        -2.73433133700000   -0.63398522390000    0.63379784510000
H        -2.63259153830000    1.86998339790000    1.18161895630000
H        -2.78095362010000    1.93197537990000   -0.57649180340000
H        -1.85472200940000    3.18077694790000    0.27606601490000
H         2.68970556420000    2.31597568570000   -0.14389354900000
H         3.01400282130000    0.89547781660000   -1.16112126400000
H         3.16496736700000    0.77467022500000    0.60840085590000
H         2.37539140960000   -1.41488314470000   -0.64714628210000
H         0.23069889180000   -2.78332226290000    1.04905094620000
H         1.79440445180000   -3.51014081750000    0.42542698010000
$end

$rem
BASIS = 6-31G*
GUI = 2
METHOD = B3LYP
PRINT_ORBITALS false
MOLDEN_FORMAT false
--------------------------------------------------------------

             Standard Nuclear Orientation (Angstroms)
    I     Atom           X                Y                Z
 ----------------------------------------------------------------
    1      C       1.8679562484     2.2023414005     0.5503336210
    2      C       0.7142842036     1.9853071558    -0.0675119257
    3      C      -0.0332543733     0.7442532459    -0.0620598444
    4      C      -1.4467411033     0.6710441329    -0.0856735633
    5      C      -2.4165902812     1.7939709084    -0.1796292337
    6      N      -1.8497541593    -0.5832170322     0.0113079118
    7      N      -0.7535223693    -1.3309629026     0.0976474295
    8      C      -0.8739011150    -2.7577034117     0.1710648066
    9      C       0.3829171536    -0.5865351072     0.0498285503
   10      C       1.6811077971    -1.2241589542     0.0549253338
   11      C       2.7650270613    -0.7562332470    -0.5518679510
   12      H       2.3459845666     3.1668677341     0.5262884280
   13      H       2.3717198557     1.4291769183     1.1052072242
   14      H       0.2223855131     2.8010169971    -0.5844512414
   15      H      -2.2535183864     2.3641650309    -1.0937429611
   16      H      -2.3019495881     2.4687776364     0.6679375939
   17      H      -3.4268985768     1.3951160991    -0.1841221825
   18      H      -1.9351212600    -2.9930589816     0.1234312745
   19      H      -0.4643647765    -3.1370452842     1.1102840712
   20      H      -0.3575497134    -3.2358743712    -0.6638119394
   21      H       1.7255020934    -2.1750301252     0.5729084908
   22      H       2.7522160904     0.1705697770    -1.0984490774
   23      H       3.6996963346    -1.2891386269    -0.5206258318
 ----------------------------------------------------------------

    9    -459.6279653403      4.13e-06  Convergence criterion met
 Total energy in the final basis set =     -459.6279653403

                    Orbital Energies (a.u.)
 --------------------------------------------------------------

 Alpha MOs
 -- Occupied --
-14.4043 -14.3322 -10.2266 -10.2165 -10.1984 -10.1964 -10.1844 -10.1830
-10.1744 -10.1743 -10.1681  -1.0505  -0.8506  -0.8199  -0.7702  -0.7422
 -0.7322  -0.6695  -0.6225  -0.5893  -0.5577  -0.5237  -0.5077  -0.4834
 -0.4670  -0.4403  -0.4341  -0.4249  -0.4185  -0.4075  -0.3864  -0.3845
 -0.3820  -0.3533  -0.3513  -0.3012  -0.2920  -0.2704  -0.2250  -0.2020

          Ground-State Mulliken Net Atomic Charges

     Atom                 Charge (a.u.)
  ----------------------------------------
      1 C                    -0.346655
      2 C                    -0.132350
      3 C                    -0.063660
      4 C                     0.301399
      5 C                    -0.523581
      6 N                    -0.360916
      7 N                    -0.298653
      8 C                    -0.324325
      9 C                     0.334144
     10 C                    -0.131257
     11 C                    -0.334784
     12 H                     0.134855
     13 H                     0.147436
     14 H                     0.125378
     15 H                     0.158321
     16 H                     0.163863
     17 H                     0.172413
     18 H                     0.197666
     19 H                     0.168590
     20 H                     0.173306
     21 H                     0.131840
     22 H                     0.164121
     23 H                     0.142850
  ----------------------------------------
  Sum of atomic charges =     0.000000

                    Cartesian Multipole Moments
 -----------------------------------------------------------------
    Charge (ESU x 10^10)
                 0.0000
    Dipole Moment (Debye)
         X       1.1870      Y      -1.2295      Z      -0.0043
       Tot       1.7090
    Quadrupole Moments (Debye-Ang)
        XX     -66.2048     XY      -1.9155     YY     -56.1493
        XZ       0.3307     YZ      -2.1960     ZZ     -67.1044

 Total job time:  29.74s(wall), 29.63s(cpu)
        *  Thank you very much for using Q-Chem.  Have a nice day.  *
