 Q-Chem 5.2, Q-Chem, Inc., Pleasanton, CA (2019)
 Q-Chem 5.2.1 for Intel X86 EM64T Linux

User input:
--------------------------------------------------------------
$molecule
0 1
C         3.10465778060000    1.91042995120000    0.23391858610000
C         1.81234983440000    1.85052469420000   -0.06267984020000
C         0.98036424690000    0.65336639530000   -0.04973385390000
C         1.51517683560000   -0.62931867190000    0.02193637200000
C         0.67615682460000   -1.72390062030000    0.00269570950000
F         1.21367089040000   -2.96462378010000    0.05399267490000
C        -0.69382224350000   -1.59238549000000   -0.07523375350000
C        -1.25888642900000   -0.31983347910000   -0.11619699360000
C        -2.72086836080000   -0.21070257430000   -0.17381963610000
C        -3.46412477800000    0.65906026370000    0.50041936060000
C        -0.41811709500000    0.80223798580000   -0.12432577930000
O        -0.91399722320000    2.06104216490000   -0.23472108900000
H         3.64075894670000    2.84297085760000    0.19789812310000
H         3.67805180570000    1.04910754780000    0.53153806580000
H         1.28250138060000    2.75482098200000   -0.32718052070000
H         2.58035267540000   -0.78077988930000    0.07098690900000
H        -1.32184267670000   -2.46927395000000   -0.08483407780000
H        -3.20453096840000   -0.94703003660000   -0.80406667230000
H        -3.04769840100000    1.36244879720000    1.20429893210000
H        -4.53763899640000    0.66085221140000    0.41520048320000
H        -1.87171883420000    2.01416861870000   -0.36632431030000
$end

$rem
BASIS = 6-31G*
GUI = 2
METHOD = B3LYP
PRINT_ORBITALS false
MOLDEN_FORMAT false
--------------------------------------------------------------

             Standard Nuclear Orientation (Angstroms)
    I     Atom           X                Y                Z
 ----------------------------------------------------------------
    1      C       3.2568382866     1.6203062931     0.2188894979
    2      C       1.9634643856     1.6547154423    -0.0771156654
    3      C       1.0451052445     0.5225526856    -0.0576326090
    4      C       1.4834909974    -0.7958241321     0.0207421715
    5      C       0.5656945964    -1.8253428111     0.0074953056
    6      F       1.0098700058    -3.1021813259     0.0652735169
    7      C      -0.7908279329    -1.5931332497    -0.0708451360
    8      C      -1.2601141850    -0.2824586029    -0.1184531711
    9      C      -2.7100325074    -0.0656498331    -0.1763488361
   10      C      -3.3864228744     0.8603254916     0.4934134280
   11      C      -0.3385537678     0.7741994898    -0.1327218418
   12      O      -0.7399060484     2.0656731005    -0.2497023834
   13      H       3.8605131347     2.5103753166     0.1778007265
   14      H       3.7650435357     0.7204654377     0.5209626762
   15      H       1.5018878825     2.5943613147    -0.3463080433
   16      H       2.5345528120    -1.0255016753     0.0703739499
   17      H      -1.4820752069    -2.4211364454    -0.0756530522
   18      H      -3.2472818872    -0.7674522368    -0.8025720123
   19      H      -2.9186202764     1.5346489893     1.1934572533
   20      H      -4.4569070921     0.9411733999     0.4084110723
   21      H      -1.6985480262     2.0891683886    -0.3808540175
 ----------------------------------------------------------------

    9    -561.4928026037      2.03e-06  Convergence criterion met
 Total energy in the final basis set =     -561.4928026037

                    Orbital Energies (a.u.)
 --------------------------------------------------------------

 Alpha MOs
 -- Occupied --
-24.6968 -19.1798 -10.2632 -10.2544 -10.2128 -10.2059 -10.2005 -10.1991
-10.1961 -10.1930 -10.1861 -10.1777  -1.2079  -1.0678  -0.8707  -0.8179
 -0.7824  -0.7383  -0.7305  -0.6522  -0.6249  -0.5994  -0.5625  -0.5412
 -0.5275  -0.5020  -0.4792  -0.4581  -0.4533  -0.4452  -0.4336  -0.4295
 -0.4106  -0.4010  -0.3860  -0.3707  -0.3596  -0.3381  -0.3321  -0.3184
 -0.2827  -0.2325  -0.2107

          Ground-State Mulliken Net Atomic Charges

     Atom                 Charge (a.u.)
  ----------------------------------------
      1 C                    -0.349775
      2 C                    -0.101774
      3 C                     0.134159
      4 C                    -0.278900
      5 C                     0.392828
      6 F                    -0.306661
      7 C                    -0.273884
      8 C                     0.134817
      9 C                    -0.148456
     10 C                    -0.371582
     11 C                     0.207184
     12 O                    -0.650712
     13 H                     0.145153
     14 H                     0.140848
     15 H                     0.156945
     16 H                     0.144378
     17 H                     0.143893
     18 H                     0.151444
     19 H                     0.166685
     20 H                     0.155372
     21 H                     0.408038
  ----------------------------------------
  Sum of atomic charges =     0.000000

                    Cartesian Multipole Moments
 -----------------------------------------------------------------
    Charge (ESU x 10^10)
                 0.0000
    Dipole Moment (Debye)
         X      -2.0237      Y       0.7827      Z      -0.2035
       Tot       2.1794
    Quadrupole Moments (Debye-Ang)
        XX     -57.4785     XY       0.1051     YY     -71.1050
        XZ       1.4232     YZ       0.5957     ZZ     -70.8727

 Total job time:  28.56s(wall), 28.46s(cpu)
        *  Thank you very much for using Q-Chem.  Have a nice day.  *
