 Q-Chem 5.2, Q-Chem, Inc., Pleasanton, CA (2019)
 Q-Chem 5.2.1 for Intel X86 EM64T Linux

User input:
--------------------------------------------------------------
$molecule
0 1
C        -0.33999470220000    2.85923055140000   -0.53653598590000
C        -1.28617545390000    2.17451341370000    0.09202643940000
C        -1.41815194450000    0.71796831410000    0.10892371470000
C        -2.70051491040000    0.18060671460000    0.00596728690000
C        -2.90584704710000   -1.18325448200000   -0.05392439080000
C        -1.82083754880000   -2.04326271090000    0.00843810700000
C        -0.54506027520000   -1.53284760790000    0.14435095930000
C        -0.32083528890000   -0.15700599500000    0.19736632540000
C         1.01975790700000    0.36879150880000    0.43020100070000
C         2.16150104450000   -0.19223031120000    0.06760309590000
F         2.32953841440000   -1.31048332210000   -0.63169449240000
F         3.35779420690000    0.32924063030000    0.34242387390000
H        -0.32733230870000    3.93601034210000   -0.53048868820000
H         0.43717580540000    2.37627384400000   -1.10468189620000
H        -2.08393461000000    2.70796049090000    0.59504131700000
H        -3.54403200750000    0.85409898520000   -0.04802265420000
H        -3.90740768520000   -1.57614561760000   -0.14519202040000
H        -1.97040233190000   -3.11148422940000   -0.03433482560000
H         0.28959686620000   -2.21066569570000    0.22931032610000
H         1.09879217100000    1.30891150500000    0.95658622640000
$end

$rem
BASIS = 6-31G*
GUI = 2
METHOD = B3LYP
PRINT_ORBITALS false
MOLDEN_FORMAT false
--------------------------------------------------------------

             Standard Nuclear Orientation (Angstroms)
    I     Atom           X                Y                Z
 ----------------------------------------------------------------
    1      C      -0.1951165051    -2.8375238273     0.5143564225
    2      C      -1.1538764686    -2.1662469916    -0.1096251783
    3      C      -1.3141884091    -0.7124587072    -0.1147870763
    4      C      -2.6068712935    -0.2010308196    -0.0088400745
    5      C      -2.8387901742     1.1580380444     0.0619491798
    6      C      -1.7706840108     2.0394932963     0.0077762252
    7      C      -0.4850801044     1.5551470402    -0.1309134741
    8      C      -0.2340449163     0.1844121361    -0.1949038974
    9      C       1.1167517482    -0.3132586291    -0.4305674260
   10      C       2.2470131956     0.2669079969    -0.0621710882
   11      F       2.3925873357     1.3824676819     0.6464036997
   12      F       3.4534917509    -0.2289040141    -0.3399401986
   13      H      -0.1614733026    -3.9137674330     0.4995422474
   14      H       0.5719727288    -2.3441846485     1.0872626245
   15      H      -1.9406269255    -2.7109986090    -0.6178365677
   16      H      -3.4371569319    -0.8912405406     0.0387429599
   17      H      -3.8478988032     1.5305914803     0.1553335927
   18      H      -1.9410707399     3.1042143485     0.0590968279
   19      H       0.3362915828     2.2497622285    -0.2094392001
   20      H       1.2145722400    -1.2473270697    -0.9645156703
 ----------------------------------------------------------------

    9    -585.5095088738      4.79e-06  Convergence criterion met
 Total energy in the final basis set =     -585.5095088738

                    Orbital Energies (a.u.)
 --------------------------------------------------------------

 Alpha MOs
 -- Occupied --
-24.7375 -24.7295 -10.3507 -10.2055 -10.1985 -10.1968 -10.1946 -10.1891
-10.1887 -10.1880 -10.1875 -10.1841  -1.2791  -1.2188  -0.8724  -0.8052
 -0.7944  -0.7392  -0.7279  -0.6456  -0.6192  -0.6082  -0.5756  -0.5561
 -0.5286  -0.5136  -0.4959  -0.4810  -0.4527  -0.4454  -0.4365  -0.4299
 -0.4285  -0.4163  -0.4043  -0.3800  -0.3729  -0.3505  -0.3423  -0.2948
 -0.2909  -0.2403  -0.2176

          Ground-State Mulliken Net Atomic Charges

     Atom                 Charge (a.u.)
  ----------------------------------------
      1 C                    -0.337838
      2 C                    -0.141237
      3 C                     0.100690
      4 C                    -0.187993
      5 C                    -0.124735
      6 C                    -0.129526
      7 C                    -0.185160
      8 C                     0.127346
      9 C                    -0.324410
     10 C                     0.547590
     11 F                    -0.239397
     12 F                    -0.250689
     13 H                     0.145624
     14 H                     0.159522
     15 H                     0.136898
     16 H                     0.128806
     17 H                     0.129943
     18 H                     0.131298
     19 H                     0.136799
     20 H                     0.176470
  ----------------------------------------
  Sum of atomic charges =     0.000000

                    Cartesian Multipole Moments
 -----------------------------------------------------------------
    Charge (ESU x 10^10)
                 0.0000
    Dipole Moment (Debye)
         X      -1.2831      Y      -0.4576      Z      -0.2539
       Tot       1.3857
    Quadrupole Moments (Debye-Ang)
        XX     -66.1918     XY      -0.8414     YY     -61.3137
        XZ       0.3019     YZ       0.1566     ZZ     -69.7114

 Total job time:  27.23s(wall), 27.12s(cpu)
        *  Thank you very much for using Q-Chem.  Have a nice day.  *
