 Q-Chem 5.2, Q-Chem, Inc., Pleasanton, CA (2019)
 Q-Chem 5.2.1 for Intel X86 EM64T Linux

User input:
--------------------------------------------------------------
$molecule
0 1
C        -0.00141876040000   -3.71586179360000    0.48890152740000
C         0.14105146850000   -2.44684788060000    0.84830366160000
C        -0.73099075800000   -1.35398408130000    0.42368623480000
C        -2.06643225930000   -1.59286881300000    0.10040590500000
C        -2.89768267930000   -0.57666308240000   -0.32773449390000
C        -2.41477133450000    0.71612151660000   -0.43657262660000
C        -1.09510613020000    0.95751459800000   -0.11041932180000
F        -0.64300554960000    2.22615678360000   -0.17633480970000
C        -0.22919999820000   -0.04506733850000    0.32105679050000
C         1.16105144650000    0.28045038280000    0.65659735430000
C         1.96538734170000    0.98587779110000   -0.11927891220000
F         1.69731046200000    1.43733770680000   -1.33364324500000
F         3.21658591010000    1.29804373820000    0.20466646310000
H         0.67607485940000   -4.47622129770000    0.83701120370000
H        -0.77956972270000   -4.04319770560000   -0.17950388270000
H         0.96979324370000   -2.17242305760000    1.48626251280000
H        -2.45772189980000   -2.59263974490000    0.20353462090000
H        -3.92752404940000   -0.78621197890000   -0.57232715440000
H        -3.03970270940000    1.53327294880000   -0.75877739150000
H         1.55904415210000   -0.05374778480000    1.60229786340000
$end

$rem
BASIS = 6-31G*
GUI = 2
METHOD = B3LYP
PRINT_ORBITALS false
MOLDEN_FORMAT false
--------------------------------------------------------------

             Standard Nuclear Orientation (Angstroms)
    I     Atom           X                Y                Z
 ----------------------------------------------------------------
    1      C       2.4510788257     2.6856656405    -0.3626617638
    2      C       1.5199632835     1.9728016085     0.2575903546
    3      C       1.3803207445     0.5209895933     0.1689860559
    4      C       2.4895378912    -0.2875047614    -0.0779031705
    5      C       2.3716417297    -1.6587506878    -0.1907776718
    6      C       1.1342237432    -2.2632278743    -0.0502601162
    7      C       0.0350946284    -1.4665191181     0.2014007590
    8      F      -1.1596727366    -2.0652595824     0.3809378900
    9      C       0.1187350655    -0.0806351421     0.3174416431
   10      C      -1.0880857497     0.7069320545     0.5906993363
   11      C      -2.2219250626     0.5819088395    -0.0766428922
   12      F      -2.4387794532    -0.1889943308    -1.1297546987
   13      F      -3.3190957578     1.2821700277     0.1949022716
   14      H       2.5011608882     3.7554773553    -0.2562699926
   15      H       3.1823076921     2.2386253125    -1.0144997818
   16      H       0.7848698332     2.4843307653     0.8634690145
   17      H       3.4612003821     0.1721643992    -0.1665671290
   18      H       3.2445843791    -2.2634071358    -0.3822751076
   19      H       1.0095799001    -3.3314917061    -0.1235260356
   20      H      -1.0692821417     1.4230950633     1.3976646584
 ----------------------------------------------------------------

    9    -684.7420471743      5.26e-06  Convergence criterion met
 Total energy in the final basis set =     -684.7420471743

                    Orbital Energies (a.u.)
 --------------------------------------------------------------

 Alpha MOs
 -- Occupied --
-24.7374 -24.7340 -24.7064 -10.3566 -10.2731 -10.2122 -10.2078 -10.2027
-10.1988 -10.1979 -10.1958 -10.1916 -10.1880  -1.2830  -1.2233  -1.2182
 -0.8798  -0.8125  -0.7997  -0.7426  -0.7346  -0.6477  -0.6401  -0.6099
 -0.5773  -0.5709  -0.5406  -0.5219  -0.5171  -0.4991  -0.4812  -0.4654
 -0.4611  -0.4435  -0.4359  -0.4346  -0.4301  -0.4128  -0.4018  -0.3791
 -0.3766  -0.3675  -0.3438  -0.3029  -0.2814  -0.2374  -0.2299

          Ground-State Mulliken Net Atomic Charges

     Atom                 Charge (a.u.)
  ----------------------------------------
      1 C                    -0.338161
      2 C                    -0.111345
      3 C                     0.117133
      4 C                    -0.193417
      5 C                    -0.123387
      6 C                    -0.196814
      7 C                     0.334201
      8 F                    -0.291953
      9 C                     0.011000
     10 C                    -0.327936
     11 C                     0.580570
     12 F                    -0.231387
     13 F                    -0.246309
     14 H                     0.147551
     15 H                     0.148037
     16 H                     0.131616
     17 H                     0.132601
     18 H                     0.138632
     19 H                     0.146311
     20 H                     0.173056
  ----------------------------------------
  Sum of atomic charges =     0.000000

                    Cartesian Multipole Moments
 -----------------------------------------------------------------
    Charge (ESU x 10^10)
                 0.0000
    Dipole Moment (Debye)
         X       2.0599      Y       0.5934      Z       0.2822
       Tot       2.1621
    Quadrupole Moments (Debye-Ang)
        XX     -70.2438     XY      -1.6026     YY     -66.2739
        XZ      -2.4629     YZ       1.6903     ZZ     -72.7826

 Total job time:  27.90s(wall), 27.80s(cpu)
        *  Thank you very much for using Q-Chem.  Have a nice day.  *
