 Q-Chem 5.2, Q-Chem, Inc., Pleasanton, CA (2019)
 Q-Chem 5.2.1 for Intel X86 EM64T Linux

User input:
--------------------------------------------------------------
$molecule
0 1
C         3.68192474340000   -1.14602724800000    0.15156035210000
C         2.45582297560000   -1.61055599220000   -0.05237782070000
C         1.22198114580000   -0.83096287960000   -0.04483424610000
C         1.21232478900000    0.56148992310000   -0.02594268570000
C         0.00013709350000    1.24638175320000   -0.01928911010000
C         0.00052215250000    2.66160731220000   -0.00802008280000
N         0.00062147730000    3.80788769150000    0.00296616320000
C        -1.21225299890000    0.56181711600000   -0.02579238820000
C        -1.22226827590000   -0.83063111440000   -0.04475851840000
C        -2.45631152800000   -1.60990521420000   -0.05261875160000
C        -3.68225976670000   -1.14516766310000    0.15161289940000
C        -0.00022570660000   -1.50213444240000   -0.06369845120000
H         4.53677645130000   -1.79979842110000    0.13246693960000
H         3.88859257750000   -0.10856391500000    0.35174337170000
H         2.31661860500000   -2.66996944270000   -0.22998085150000
H         2.13361998780000    1.12265686360000   -0.02942736070000
H        -2.13338134490000    1.12325129200000   -0.02943952100000
H        -2.31740691770000   -2.66921260510000   -0.23094152810000
H        -3.88862318510000   -0.10778577940000    0.35226139970000
H        -4.53721298430000   -1.79877682330000    0.13286285820000
H        -0.00040562510000   -2.58361003990000   -0.08370025690000
$end

$rem
BASIS = 6-31G*
GUI = 2
METHOD = B3LYP
PRINT_ORBITALS false
MOLDEN_FORMAT false
--------------------------------------------------------------

             Standard Nuclear Orientation (Angstroms)
    I     Atom           X                Y                Z
 ----------------------------------------------------------------
    1      C       3.6819662651     1.0883356635    -0.1511518109
    2      C       2.4558790807     1.5532383559     0.0520204812
    3      C       1.2220134413     0.7736715018     0.0457681430
    4      C       1.2123145459    -0.6188103346     0.0291786646
    5      C       0.0001059332    -1.3036752253     0.0236597198
    6      C       0.0004477736    -2.7189174916     0.0147303932
    7      N       0.0005120893    -3.8652144697     0.0056392212
    8      C      -1.2122632511    -0.6190637635     0.0290335917
    9      C      -1.2222359895     0.7734142244     0.0456976854
   10      C      -2.4562554400     1.5527379237     0.0522719763
   11      C      -3.6822182679     1.0877007901    -0.1511887118
   12      C      -0.0001728872     1.4449106426     0.0635250857
   13      H       4.5368379652     1.7421114135    -0.1331409065
   14      H       3.8886020363     0.0505364925    -0.3496197960
   15      H       2.3167073981     2.6129482252     0.2278720896
   16      H       2.1335926230    -1.1799988702     0.0335892903
   17      H      -2.1334087258    -1.1804630243     0.0336106758
   18      H      -2.3173181436     2.6123344340     0.2288429675
   19      H      -3.8886137474     0.0499949069    -0.3501215138
   20      H      -4.5371514982     1.7413661529    -0.1335176076
   21      H      -0.0003197567     2.5264178347     0.0817389422
 ----------------------------------------------------------------

    9    -479.2878500150      4.73e-06  Convergence criterion met
 Total energy in the final basis set =     -479.2878500150

                    Orbital Energies (a.u.)
 --------------------------------------------------------------

 Alpha MOs
 -- Occupied --
-14.3308 -10.2374 -10.2226 -10.2181 -10.2181 -10.2148 -10.2148 -10.2104
-10.2057 -10.2057 -10.1956 -10.1956  -0.9139  -0.8896  -0.8244  -0.8098
 -0.7630  -0.7408  -0.6601  -0.6599  -0.6114  -0.5567  -0.5459  -0.5118
 -0.5061  -0.4697  -0.4649  -0.4427  -0.4307  -0.4152  -0.4007  -0.3817
 -0.3706  -0.3681  -0.3621  -0.3531  -0.3352  -0.3322  -0.2924  -0.2522
 -0.2389

          Ground-State Mulliken Net Atomic Charges

     Atom                 Charge (a.u.)
  ----------------------------------------
      1 C                    -0.346890
      2 C                    -0.113316
      3 C                     0.179818
      4 C                    -0.202576
      5 C                     0.156113
      6 C                     0.218330
      7 N                    -0.471732
      8 C                    -0.202542
      9 C                     0.179783
     10 C                    -0.113319
     11 C                    -0.346881
     12 C                    -0.263546
     13 H                     0.153226
     14 H                     0.151506
     15 H                     0.134194
     16 H                     0.155428
     17 H                     0.155431
     18 H                     0.134199
     19 H                     0.151506
     20 H                     0.153227
     21 H                     0.138041
  ----------------------------------------
  Sum of atomic charges =     0.000000

                    Cartesian Multipole Moments
 -----------------------------------------------------------------
    Charge (ESU x 10^10)
                 0.0000
    Dipole Moment (Debye)
         X      -0.0007      Y       4.5704      Z       0.0034
       Tot       4.5704
    Quadrupole Moments (Debye-Ang)
        XX     -58.1276     XY       0.0026     YY     -82.4487
        XZ       0.0013     YZ       0.8364     ZZ     -72.8823

 Total job time:  25.13s(wall), 25.04s(cpu)
        *  Thank you very much for using Q-Chem.  Have a nice day.  *
