 Q-Chem 5.2, Q-Chem, Inc., Pleasanton, CA (2019)
 Q-Chem 5.2.1 for Intel X86 EM64T Linux

User input:
--------------------------------------------------------------
$molecule
0 1
C         2.95359104110000    2.55316079440000    0.25790056410000
C         2.74093558840000    1.31234233680000   -0.16312473260000
C         1.47071873850000    0.62194060490000   -0.07206074620000
C         0.20142844460000    1.22311666910000   -0.01380056260000
C        -0.74545813480000    0.21468484730000   -0.02799630350000
C        -2.19270849320000    0.30666287060000    0.01466831170000
O        -2.83490178270000    1.32665045150000    0.07903212870000
O        -2.76519094210000   -0.92536459640000   -0.02580339650000
C        -4.18255461480000   -0.93807427950000    0.01166708250000
N        -0.08034767970000   -0.97601776650000   -0.09739004030000
C         1.26046236370000   -0.76483284500000   -0.11274716720000
C         2.17199517830000   -1.88039695510000   -0.14846546970000
C         3.44138085060000   -1.87010452170000    0.24926194040000
H         3.91047237660000    3.03252803360000    0.14370709680000
H         2.18315879960000    3.12869140580000    0.74164660650000
H         3.54228819250000    0.75461609330000   -0.63018402700000
H        -0.01412684990000    2.27166917940000    0.00941916000000
H        -4.47902173910000   -1.98368914190000   -0.01605182870000
H        -4.58991309140000   -0.40053847140000   -0.84716503250000
H        -4.54248627740000   -0.46065338220000    0.92541920590000
H        -0.53683748260000   -1.87384285940000   -0.10016791350000
H         1.73776442660000   -2.80446928550000   -0.51450605230000
H         3.90253528740000   -0.99489589700000    0.67040312320000
H         4.05306797160000   -2.75305752350000    0.18192252950000
$end

$rem
BASIS = 6-31G*
GUI = 2
METHOD = B3LYP
PRINT_ORBITALS false
MOLDEN_FORMAT false
--------------------------------------------------------------

             Standard Nuclear Orientation (Angstroms)
    I     Atom           X                Y                Z
 ----------------------------------------------------------------
    1      C       3.1003730955    -2.3598198668    -0.1573817087
    2      C       2.7984438157    -1.1243703254     0.2229053241
    3      C       1.4838989953    -0.5277165805     0.1030125774
    4      C       0.2601238186    -1.2177529670     0.0568729920
    5      C      -0.7548834487    -0.2780924702     0.0338762436
    6      C      -2.1918205860    -0.4723917687    -0.0138026020
    7      O      -2.7607825827    -1.5363235140    -0.0493142159
    8      O      -2.8491467812     0.7172236902    -0.0155706069
    9      C      -4.2636137185     0.6295576666    -0.0612138450
   10      N      -0.1750082580     0.9578129743     0.0691270337
   11      C       1.1771092855     0.8415400859     0.0985421472
   12      C       2.0082999711     2.0187167033     0.1038721130
   13      C       3.2783354196     2.0848383839    -0.2863469215
   14      H       4.0874556086    -2.7672596064    -0.0227861698
   15      H       2.3757124203    -3.0026806247    -0.6268585546
   16      H       3.5553190671    -0.4976197144     0.6764386401
   17      H       0.1184237251    -2.2790296331     0.0657346480
   18      H      -4.6325032297     1.6522217656    -0.0682992888
   19      H      -4.6390818065     0.0919418436     0.8119821335
   20      H      -4.5823196624     0.0998004428    -0.9613295393
   21      H      -0.6930243472     1.8211462302     0.0409210963
   22      H       1.5078606107     2.9211302937     0.4380305847
   23      H       3.8026476199     1.2313065323    -0.6769791554
   24      H       3.8264028223     3.0100970737    -0.2436829694
 ----------------------------------------------------------------

    9    -592.8532504897      6.45e-06  Convergence criterion met
 Total energy in the final basis set =     -592.8532504897

                    Orbital Energies (a.u.)
 --------------------------------------------------------------

 Alpha MOs
 -- Occupied --
-19.1912 -19.1280 -14.3915 -10.3120 -10.2394 -10.2279 -10.2199 -10.2052
-10.1891 -10.1869 -10.1865 -10.1824 -10.1731  -1.1036  -1.0125  -0.9988
 -0.8172  -0.8025  -0.7590  -0.7494  -0.7073  -0.6318  -0.6223  -0.6061
 -0.5599  -0.5400  -0.5303  -0.4969  -0.4845  -0.4672  -0.4671  -0.4437
 -0.4333  -0.4271  -0.4211  -0.4070  -0.4012  -0.3876  -0.3677  -0.3596
 -0.3484  -0.3029  -0.3011  -0.2980  -0.2731  -0.2351  -0.2028

          Ground-State Mulliken Net Atomic Charges

     Atom                 Charge (a.u.)
  ----------------------------------------
      1 C                    -0.353543
      2 C                    -0.117226
      3 C                     0.044266
      4 C                    -0.226679
      5 C                     0.286692
      6 C                     0.579291
      7 O                    -0.493261
      8 O                    -0.490489
      9 C                    -0.212950
     10 N                    -0.708447
     11 C                     0.316810
     12 C                    -0.121839
     13 C                    -0.348981
     14 H                     0.139478
     15 H                     0.142591
     16 H                     0.133801
     17 H                     0.153228
     18 H                     0.159646
     19 H                     0.169944
     20 H                     0.170508
     21 H                     0.341504
     22 H                     0.128831
     23 H                     0.159901
     24 H                     0.146924
  ----------------------------------------
  Sum of atomic charges =     0.000000

                    Cartesian Multipole Moments
 -----------------------------------------------------------------
    Charge (ESU x 10^10)
                -0.0000
    Dipole Moment (Debye)
         X       0.1072      Y       3.4151      Z       0.0560
       Tot       3.4172
    Quadrupole Moments (Debye-Ang)
        XX     -67.0940     XY      -6.8347     YY     -71.7060
        XZ       0.0518     YZ       0.9928     ZZ     -77.8033

 Total job time:  30.73s(wall), 30.62s(cpu)
        *  Thank you very much for using Q-Chem.  Have a nice day.  *
