 Q-Chem 5.4, Q-Chem, Inc., Pleasanton, CA (2021)
 Q-Chem 5.4.2 for Intel X86 EM64T Linux

User input:
--------------------------------------------------------------
$molecule
0 1
C            1.57321561030000       -2.58343928780000       -0.50425927880000
C            0.81468943420000       -1.71263184680000        0.14706924960000
C            0.98801742950000       -0.26969392290000        0.11022407700000
C            2.18288230410000        0.35768361440000       -0.09584143310000
S            2.07942628860000        2.06398495880000        0.03991355770000
C            0.40633582360000        1.96232893200000        0.39038743400000
C           -0.05567936960000        0.67716104560000        0.38386734340000
C           -1.45814216760000        0.36736509750000        0.61605741540000
C           -2.16448108960000       -0.55466014270000       -0.01744752320000
F           -1.75590142230000       -1.35641071880000       -0.99222318440000
F           -3.45184832880000       -0.79151693570000        0.23157483740000
H            1.40713389330000       -3.64327030900000       -0.42426173960000
H            2.37250895090000       -2.26981853380000       -1.15383260070000
H            0.00164608530000       -2.06345887570000        0.76924703910000
H            3.13421507830000       -0.09522373650000       -0.28942085970000
H           -0.15838885860000        2.85827489750000        0.55631360990000
H           -1.98948429240000        0.97278205370000        1.33514321230000
$end

$rem
BASIS = 6-31G*
GUI = 2
METHOD = B3LYP
PRINT_ORBITALS false
MOLDEN_FORMAT false
$end
--------------------------------------------------------------

             Standard Nuclear Orientation (Angstroms)
    I     Atom           X                Y                Z
 ----------------------------------------------------------------
    1      C      -0.1231147016     3.0261522610     0.0657993284
    2      C       0.1221111119     1.7960976467     0.4955973707
    3      C      -0.7056753713     0.6358500837     0.2091272260
    4      C      -2.0494005688     0.6874324568    -0.0264772937
    5      S      -2.7605420398    -0.8621372942    -0.2100753268
    6      C      -1.2443726514    -1.6179946916     0.0395395166
    7      C      -0.2343620506    -0.7198389435     0.2353758894
    8      C       1.1433272218    -1.1474086662     0.4249650765
    9      C       2.2154050115    -0.5563503761    -0.0767051678
   10      F       2.2553390349     0.5136430266    -0.8599345800
   11      F       3.4568484976    -0.9968058924     0.1239056347
   12      H       0.5177574593     3.8501950293     0.3255317406
   13      H      -0.9590045916     3.2505713633    -0.5745892103
   14      H       0.9882802303     1.6027278832     1.1149385416
   15      H      -2.6725136611     1.5577545438    -0.0700851975
   16      H      -1.1694504595    -2.6866914875     0.0016124910
   17      H       1.3104078576    -2.0555334589     0.9847256948
 ----------------------------------------------------------------

    9    -906.2648518577      5.43e-06  Convergence criterion met
 Total energy in the final basis set =     -906.2648518577

                    Orbital Energies (a.u.)
 --------------------------------------------------------------

 Alpha MOs
 -- Occupied --
-88.9130 -24.7400 -24.7344 -10.3572 -10.2133 -10.2118 -10.2075 -10.2057
-10.1995 -10.1920 -10.1789  -7.9747  -5.9385  -5.9349  -5.9321  -1.2835
 -1.2231  -0.8955  -0.8106  -0.7927  -0.7278  -0.7148  -0.6371  -0.6088
 -0.5812  -0.5644  -0.5537  -0.5186  -0.5067  -0.4861  -0.4570  -0.4408
 -0.4384  -0.4259  -0.4149  -0.4005  -0.3884  -0.3843  -0.3706  -0.3448
 -0.2987  -0.2893  -0.2247  -0.2225

          Ground-State Mulliken Net Atomic Charges

     Atom                 Charge (a.u.)
  ----------------------------------------
      1 C                    -0.347070
      2 C                    -0.099662
      3 C                     0.150850
      4 C                    -0.413623
      5 S                     0.274342
      6 C                    -0.403614
      7 C                     0.142546
      8 C                    -0.323101
      9 C                     0.560914
     10 F                    -0.229573
     11 F                    -0.247585
     12 H                     0.143989
     13 H                     0.140276
     14 H                     0.133852
     15 H                     0.175254
     16 H                     0.173136
     17 H                     0.169070
  ----------------------------------------
  Sum of atomic charges =     0.000000

                    Cartesian Multipole Moments
 -----------------------------------------------------------------
    Charge (ESU x 10^10)
                 0.0000
    Dipole Moment (Debye)
         X      -0.5526      Y      -0.3801      Z       0.4416
       Tot       0.8030
    Quadrupole Moments (Debye-Ang)
        XX     -69.9049     XY      -1.2058     YY     -61.5586
        XZ       2.1538     YZ      -0.6709     ZZ     -70.4668

 Total job time:  28.93s(wall), 28.47s(cpu)
        *  Thank you very much for using Q-Chem.  Have a nice day.  *
