 Q-Chem 5.2, Q-Chem, Inc., Pleasanton, CA (2019)
 Q-Chem 5.2.1 for Intel X86 EM64T Linux

User input:
--------------------------------------------------------------
$molecule
0 1
C        -4.19366895230000   -1.68218997080000    0.46128185600000
C        -2.92502840210000   -1.95983254610000    0.17379006390000
C        -1.88148958980000   -0.98471474320000    0.02047619950000
C        -0.56467343110000   -1.21994989010000   -0.27739644490000
C         0.23597845380000   -0.06339999110000   -0.35812672830000
C         1.69232492360000   -0.14355837720000   -0.69037626000000
C         2.53086257400000   -0.36058756860000    0.57607564790000
C         4.03532665700000   -0.28154443710000    0.31923123370000
C         4.55327453160000   -1.41181247250000   -0.56246833920000
C        -0.48211354120000    1.08630783430000   -0.10974458080000
C        -0.11726914970000    2.48016959030000   -0.09130618210000
C         1.09598530350000    3.00555719160000    0.06032303890000
S        -2.16025382870000    0.71863373970000    0.19876390250000
H        -4.93375994590000   -2.45567335180000    0.56413249370000
H        -4.52656714070000   -0.66699716900000    0.60219297160000
H        -2.60581928950000   -2.98547713260000    0.03536712920000
H        -0.17622060540000   -2.21062540980000   -0.44239323590000
H         2.01029056710000    0.76950092860000   -1.19610731230000
H         1.84537492730000   -0.98186123410000   -1.37247139030000
H         2.28547382480000   -1.33620644430000    1.00196595350000
H         2.25526781910000    0.39502330660000    1.31598758190000
H         4.55245826090000   -0.31833154190000    1.28121741180000
H         4.27385102630000    0.67806331340000   -0.14629334820000
H         4.28781091010000   -2.37761205840000   -0.13754154340000
H         5.63671470540000   -1.36031174990000   -0.64364979920000
H         4.13692699160000   -1.34854115500000   -1.56453189590000
H        -0.96391449120000    3.15011455740000   -0.18737124520000
H         1.98032121250000    2.41575673590000    0.21341033470000
H         1.23343783720000    4.07335895900000    0.05278584220000
$end

$rem
BASIS = 6-31G*
GUI = 2
METHOD = B3LYP
PRINT_ORBITALS false
MOLDEN_FORMAT false
--------------------------------------------------------------

             Standard Nuclear Orientation (Angstroms)
    I     Atom           X                Y                Z
 ----------------------------------------------------------------
    1      C       4.4228477122     1.3389219405     0.2653453979
    2      C       3.1645938648     1.7124559992     0.0498103935
    3      C       2.0466220621     0.8178369223    -0.0647709267
    4      C       0.7367760137     1.1527407731    -0.2888495353
    5      C      -0.1486962713     0.0583244686    -0.3468173995
    6      C      -1.6105273993     0.2492699344    -0.6004899063
    7      C      -2.3650213058     0.4995208781     0.7118594780
    8      C      -3.8824509311     0.5335909648     0.5333220641
    9      C      -4.3616655713     1.7159660334    -0.3006518536
   10      C       0.4959592785    -1.1446757811    -0.1560622961
   11      C       0.0324580877    -2.5089595827    -0.1419784712
   12      C      -1.2063061316    -2.9492539927     0.0644530236
   13      S       2.2099538592    -0.9044025905     0.0697870340
   14      H       5.2213641135     2.0552087680     0.3421191609
   15      H       4.6880676781     0.2998292793     0.3713566343
   16      H       2.9138942481     2.7609411113    -0.0542610060
   17      H       0.4132075370     2.1718543719    -0.4163973209
   18      H      -2.0193816170    -0.6280769839    -1.1041206809
   19      H      -1.7372077516     1.1102735395    -1.2593181318
   20      H      -2.0280195675     1.4460923590     1.1406515504
   21      H      -2.1073187074    -0.2889774800     1.4233576465
   22      H      -4.3455010775     0.5873997705     1.5216969768
   23      H      -4.2134888249    -0.3966865174     0.0648652734
   24      H      -4.0054295821     2.6513297004     0.1259548583
   25      H      -5.4487233852     1.7437662766    -0.3255078344
   26      H      -4.0029779082     1.6437814005    -1.3241812594
   27      H       0.8222606855    -3.2356107390    -0.2938107574
   28      H      -2.0365337611    -2.3010067236     0.2738518270
   29      H      -1.4210102780    -4.0041080324     0.0461307093
 ----------------------------------------------------------------

    9    -865.0582822779      3.46e-06  Convergence criterion met
 Total energy in the final basis set =     -865.0582822779

                    Orbital Energies (a.u.)
 --------------------------------------------------------------

 Alpha MOs
 -- Occupied --
-88.8978 -10.2149 -10.2134 -10.1975 -10.1965 -10.1914 -10.1857 -10.1847
-10.1808 -10.1803 -10.1796 -10.1788 -10.1711  -7.9598  -5.9239  -5.9202
 -5.9167  -0.8883  -0.8130  -0.7986  -0.7730  -0.7526  -0.7156  -0.6919
 -0.6425  -0.6209  -0.5892  -0.5711  -0.5346  -0.5187  -0.4941  -0.4650
 -0.4573  -0.4540  -0.4340  -0.4276  -0.4117  -0.4026  -0.3992  -0.3828
 -0.3735  -0.3664  -0.3599  -0.3484  -0.3375  -0.3313  -0.3259  -0.3194
 -0.3137  -0.2681  -0.2431  -0.1970

          Ground-State Mulliken Net Atomic Charges

     Atom                 Charge (a.u.)
  ----------------------------------------
      1 C                    -0.374596
      2 C                    -0.054690
      3 C                    -0.136625
      4 C                    -0.176525
      5 C                     0.181756
      6 C                    -0.356803
      7 C                    -0.253000
      8 C                    -0.252396
      9 C                    -0.446413
     10 C                    -0.197251
     11 C                    -0.092769
     12 C                    -0.352610
     13 S                     0.230082
     14 H                     0.146043
     15 H                     0.155851
     16 H                     0.136651
     17 H                     0.131664
     18 H                     0.148848
     19 H                     0.146311
     20 H                     0.134317
     21 H                     0.145047
     22 H                     0.133996
     23 H                     0.131982
     24 H                     0.142098
     25 H                     0.145071
     26 H                     0.148996
     27 H                     0.138470
     28 H                     0.152179
     29 H                     0.144314
  ----------------------------------------
  Sum of atomic charges =     0.000000

                    Cartesian Multipole Moments
 -----------------------------------------------------------------
    Charge (ESU x 10^10)
                -0.0000
    Dipole Moment (Debye)
         X      -0.9445      Y       0.6492      Z      -0.0786
       Tot       1.1487
    Quadrupole Moments (Debye-Ang)
        XX     -82.7603     XY       1.7815     YY     -80.3094
        XZ       0.1873     YZ      -0.0819     ZZ     -90.5739

 Total job time:  40.92s(wall), 40.79s(cpu)
        *  Thank you very much for using Q-Chem.  Have a nice day.  *
