 Q-Chem 5.2, Q-Chem, Inc., Pleasanton, CA (2019)
 Q-Chem 5.2.1 for Intel X86 EM64T Linux

User input:
--------------------------------------------------------------
$molecule
0 1
C        -3.93708528130000   -0.89369033850000    0.25152784170000
C        -2.92022165870000   -0.05134963070000    0.11658149130000
C        -1.52247756240000   -0.43347150840000    0.00510340790000
C        -1.06294639350000   -1.69382792690000   -0.27945360260000
S         0.63607472720000   -1.79514354770000   -0.38019513550000
C         0.78299404170000   -0.10214290590000   -0.03582315640000
C         2.16894699860000    0.36840200260000    0.09690994690000
O         3.09976292020000   -0.34891316310000   -0.16349236810000
O         2.36364924270000    1.61727807880000    0.55054463690000
C        -0.44641294180000    0.49808907080000    0.13941254080000
C        -0.68956036070000    1.91369067000000    0.42577452200000
C        -0.22459451520000    2.92161545160000   -0.30269662070000
H        -4.95067883460000   -0.54002232470000    0.32376417550000
H        -3.79859050990000   -1.95978617720000    0.30196079190000
H        -3.10878797210000    1.01359247370000    0.08321484800000
H        -1.65234581200000   -2.57170471430000   -0.45389340800000
H         1.53052208240000    2.09637997410000    0.69340438820000
H        -1.33802287230000    2.10566495100000    1.27256271590000
H         0.37985988320000    2.76016689180000   -1.18123682290000
H        -0.45734766840000    3.94524303150000   -0.06366316060000
$end

$rem
BASIS = 6-31G*
GUI = 2
METHOD = B3LYP
PRINT_ORBITALS false
MOLDEN_FORMAT false
--------------------------------------------------------------

             Standard Nuclear Orientation (Angstroms)
    I     Atom           X                Y                Z
 ----------------------------------------------------------------
    1      C       3.9785394979     0.0139296746    -0.2195730020
    2      C       2.7936030384     0.5801499520    -0.0270108120
    3      C       1.5213603109    -0.1219768821    -0.0035714732
    4      C       1.3637790476    -1.4779996065     0.1268524710
    5      S      -0.2664208364    -1.9764093668     0.1603566393
    6      C      -0.7984719675    -0.3341779030    -0.0022039075
    7      C      -2.2547461187    -0.1815316678    -0.1281440123
    8      O      -2.9962203507    -1.1177138160     0.0220147077
    9      O      -2.7298759618     1.0327855106    -0.4491896040
   10      C       0.2599976391     0.5475095619    -0.0707372019
   11      C       0.1711826125     2.0042819090    -0.1931216745
   12      C      -0.5190638436     2.7895817337     0.6251935605
   13      H       4.8833646521     0.5961345107    -0.2196838544
   14      H       4.0906128302    -1.0427499902    -0.3903133765
   15      H       2.7306241537     1.6491162848     0.1282853968
   16      H       2.1389934613    -2.2115715496     0.2238235560
   17      H      -2.0291522077     1.7029544375    -0.5117054394
   18      H       0.7633287808     2.4344812189    -0.9923084286
   19      H      -1.0756644791     2.3953666579     1.4606897308
   20      H      -0.5276846087     3.8596441104     0.5068016684
 ----------------------------------------------------------------

   10    -896.3609553906      2.53e-06  Convergence criterion met
 Total energy in the final basis set =     -896.3609553906

                    Orbital Energies (a.u.)
 --------------------------------------------------------------

 Alpha MOs
 -- Occupied --
-88.9246 -19.1849 -19.1276 -10.3206 -10.2340 -10.2294 -10.2286 -10.2262
-10.2169 -10.2144 -10.2062 -10.1938  -7.9854  -5.9493  -5.9455  -5.9429
 -1.0982  -1.0164  -0.9101  -0.8249  -0.8083  -0.7468  -0.7366  -0.6470
 -0.6234  -0.6224  -0.5951  -0.5481  -0.5182  -0.4976  -0.4826  -0.4530
 -0.4475  -0.4460  -0.4335  -0.4118  -0.4012  -0.3961  -0.3786  -0.3683
 -0.3544  -0.3195  -0.3146  -0.3050  -0.2738  -0.2559  -0.2331

          Ground-State Mulliken Net Atomic Charges

     Atom                 Charge (a.u.)
  ----------------------------------------
      1 C                    -0.345046
      2 C                    -0.104718
      3 C                     0.153213
      4 C                    -0.413822
      5 S                     0.337689
      6 C                    -0.319447
      7 C                     0.611030
      8 O                    -0.455406
      9 O                    -0.593439
     10 C                     0.126472
     11 C                    -0.192644
     12 C                    -0.341843
     13 H                     0.149963
     14 H                     0.144229
     15 H                     0.134938
     16 H                     0.179196
     17 H                     0.413427
     18 H                     0.166763
     19 H                     0.182281
     20 H                     0.167165
  ----------------------------------------
  Sum of atomic charges =     0.000000

                    Cartesian Multipole Moments
 -----------------------------------------------------------------
    Charge (ESU x 10^10)
                 0.0000
    Dipole Moment (Debye)
         X       4.8080      Y       2.7779      Z       0.0026
       Tot       5.5528
    Quadrupole Moments (Debye-Ang)
        XX     -86.5745     XY      -6.7605     YY     -67.0657
        XZ      -1.6058     YZ      -0.0194     ZZ     -76.8240

 Total job time:  31.00s(wall), 30.89s(cpu)
        *  Thank you very much for using Q-Chem.  Have a nice day.  *
