 Q-Chem 5.2, Q-Chem, Inc., Pleasanton, CA (2019)
 Q-Chem 5.2.1 for Intel X86 EM64T Linux

User input:
--------------------------------------------------------------
$molecule
0 1
C         1.99691800350000   -3.38296059710000    0.05506786050000
C         0.81378068600000   -2.77475091000000    0.03783368840000
C         0.62224231910000   -1.35390117870000    0.02188775070000
S         1.92832540690000   -0.20808507790000    0.02042911020000
C         0.84796955400000    1.15572882790000   -0.00456196700000
C         1.38571717470000    2.48714266140000   -0.01682861220000
C         0.66307778600000    3.60275320830000   -0.09200106900000
C        -0.46067312770000    0.72208895590000   -0.00468511500000
C        -0.58352199810000   -0.68822169810000    0.00047351130000
O        -1.79246118210000   -1.32874198480000   -0.02405631510000
C        -2.84399214400000   -0.45852025350000   -0.38860545420000
C        -2.73326299220000    0.86553848440000    0.36751554500000
O        -1.55031167960000    1.54986701110000    0.00695417100000
H         2.08139794210000   -4.45467330340000    0.06190052080000
H         2.91440283330000   -2.81812048490000    0.06227061020000
H        -0.10829356860000   -3.34109993100000    0.03258744270000
H         2.46544377990000    2.53453403660000    0.03992174020000
H        -0.40959835660000    3.57484105160000   -0.15504190160000
H         1.13266511910000    4.57072731910000   -0.09051235270000
H        -3.77114325690000   -0.97648214120000   -0.13999456390000
H        -2.80824490980000   -0.26191157690000   -1.46925414550000
H        -2.73398957410000    0.66586120500000    1.44812416050000
H        -3.56034450860000    1.53087583550000    0.11651307300000
$end

$rem
BASIS = 6-31G*
GUI = 2
METHOD = B3LYP
PRINT_ORBITALS false
MOLDEN_FORMAT false
--------------------------------------------------------------

             Standard Nuclear Orientation (Angstroms)
    I     Atom           X                Y                Z
 ----------------------------------------------------------------
    1      C       3.9294368890    -0.3514978053    -0.0353905387
    2      C       2.8681608595     0.4507959900    -0.0284762440
    3      C       1.5047936033     0.0071525908    -0.0156140151
    4      S       1.0388997280    -1.6666375951    -0.0047049671
    5      C      -0.6586446500    -1.2846577853     0.0099988494
    6      C      -1.6250820930    -2.3466145705     0.0252377900
    7      C      -2.9440558723    -2.1789249053     0.0933099749
    8      C      -0.8355537152     0.0825255285    -0.0001101304
    9      C       0.3819027357     0.8049331068    -0.0047661114
   10      O       0.4345338490     2.1721919610     0.0105666096
   11      C      -0.8073014528     2.7446515880     0.3655797907
   12      C      -1.9488685358     2.0653244427    -0.3910249122
   13      O      -2.0539799320     0.7051349772    -0.0215387049
   14      H       4.9317464902     0.0372208097    -0.0403877207
   15      H       3.8184980245    -1.4232100422    -0.0356979422
   16      H       2.9784774268     1.5272843010    -0.0301611749
   17      H      -1.1991927750    -3.3403916143    -0.0227368164
   18      H      -3.3844665701    -1.1999064754     0.1476116625
   19      H      -3.6125292652    -3.0219136075     0.0946251843
   20      H      -0.7416405071     3.8029732535     0.1099531675
   21      H      -0.9738156545     2.6346167497     1.4462739128
   22      H      -1.7643993442     2.1451372073    -1.4713894635
   23      H      -2.9082314191     2.5236463505    -0.1475012923
 ----------------------------------------------------------------

    9    -935.6442009076      3.53e-06  Convergence criterion met
 Total energy in the final basis set =     -935.6442009076

                    Orbital Energies (a.u.)
 --------------------------------------------------------------

 Alpha MOs
 -- Occupied --
-88.9022 -19.1907 -19.1898 -10.2572 -10.2570 -10.2494 -10.2481 -10.2156
-10.2128 -10.1931 -10.1921 -10.1745 -10.1721  -7.9636  -5.9278  -5.9243
 -5.9201  -1.0993  -1.0648  -0.8891  -0.8030  -0.7844  -0.7652  -0.7163
 -0.7090  -0.6588  -0.6234  -0.5795  -0.5608  -0.5397  -0.5378  -0.5055
 -0.4799  -0.4568  -0.4511  -0.4504  -0.4419  -0.4204  -0.4114  -0.4061
 -0.3903  -0.3690  -0.3596  -0.3449  -0.3406  -0.3367  -0.3164  -0.2961
 -0.2626  -0.2193  -0.1871

          Ground-State Mulliken Net Atomic Charges

     Atom                 Charge (a.u.)
  ----------------------------------------
      1 C                    -0.379331
      2 C                    -0.051667
      3 C                    -0.203311
      4 S                     0.247118
      5 C                    -0.192469
      6 C                    -0.082979
      7 C                    -0.355777
      8 C                     0.340482
      9 C                     0.311594
     10 O                    -0.513965
     11 C                    -0.064699
     12 C                    -0.065376
     13 O                    -0.517793
     14 H                     0.143993
     15 H                     0.150240
     16 H                     0.150519
     17 H                     0.133140
     18 H                     0.166079
     19 H                     0.138831
     20 H                     0.161648
     21 H                     0.160441
     22 H                     0.161496
     23 H                     0.161785
  ----------------------------------------
  Sum of atomic charges =     0.000000

                    Cartesian Multipole Moments
 -----------------------------------------------------------------
    Charge (ESU x 10^10)
                -0.0000
    Dipole Moment (Debye)
         X      -1.3022      Y       2.2009      Z      -0.0200
       Tot       2.5573
    Quadrupole Moments (Debye-Ang)
        XX     -78.7620     XY      -4.6447     YY     -72.2450
        XZ       0.3201     YZ       0.2762     ZZ     -85.4158

 Total job time:  35.83s(wall), 35.66s(cpu)
        *  Thank you very much for using Q-Chem.  Have a nice day.  *
