 Q-Chem 5.2, Q-Chem, Inc., Pleasanton, CA (2019)
 Q-Chem 5.2.1 for Intel X86 EM64T Linux

User input:
--------------------------------------------------------------
$molecule
0 1
C         3.62886188750000    0.52376944080000    0.71199782530000
C         2.80813163490000    1.09866548360000   -0.15574734420000
C         1.35512325340000    0.91656540270000   -0.19615576680000
C         0.56513138400000    2.04218401770000   -0.28032314930000
C        -0.82521022760000    1.96028092580000   -0.23928119870000
C        -1.46989609400000    0.74854003000000   -0.11787448790000
C        -2.93147742800000    0.70493174190000   -0.09247825350000
C        -3.69497996340000    1.60467179750000    0.51282018600000
C        -0.69001210430000   -0.44215148630000   -0.06316475890000
C        -1.28197864600000   -1.71655667790000    0.07441570090000
C        -0.52748522650000   -2.85581861330000    0.08120183050000
C         0.86307498870000   -2.77778079350000   -0.06824574240000
C         1.47305208700000   -1.55927630010000   -0.16814654120000
C         0.72950294760000   -0.36003723560000   -0.12905776940000
H         4.68524606730000    0.73452849760000    0.71484450460000
H         3.27488266610000   -0.15910380750000    1.46649498820000
H         3.19806914770000    1.82564891640000   -0.85892962830000
H         1.03325720400000    3.01380361100000   -0.35692801530000
H        -1.40782504010000    2.86627008650000   -0.31900708610000
H        -3.39761446770000   -0.11593720220000   -0.62162078070000
H        -3.27572658200000    2.42299259740000    1.07438793860000
H        -4.76982429230000    1.54642462790000    0.48579213210000
H        -2.35339412240000   -1.79063599470000    0.17944452490000
H        -1.00047291340000   -3.82144629040000    0.18623823560000
H         1.44862630220000   -3.68493873320000   -0.10372080380000
H         2.54286697060000   -1.50277216320000   -0.29733426710000
$end

$rem
BASIS = 6-31G*
GUI = 2
METHOD = B3LYP
PRINT_ORBITALS false
MOLDEN_FORMAT false
--------------------------------------------------------------

             Standard Nuclear Orientation (Angstroms)
    I     Atom           X                Y                Z
 ----------------------------------------------------------------
    1      C      -3.4464590181    -1.2468464910     0.7067511938
    2      C      -2.5246446021    -1.6449983834    -0.1585918247
    3      C      -1.1398023126    -1.1690533920    -0.2000023930
    4      C      -0.1357599567    -2.1091539340    -0.2793654021
    5      C       1.2082268704    -1.7437737466    -0.2388798210
    6      C       1.5907035967    -0.4250902832    -0.1228585667
    7      C       3.0122797150    -0.0826532356    -0.0978614558
    8      C       3.9435660702    -0.8041385093     0.5112520103
    9      C       0.5832358467     0.5806457998    -0.0732385818
   10      C       0.9012538054     1.9499232605     0.0586900939
   11      C      -0.0707827087     2.9103218581     0.0606079387
   12      C      -1.4156939913     2.5482134047    -0.0882990803
   13      C      -1.7628288300     1.2301184562    -0.1827900368
   14      C      -0.7892426681     0.2089709870    -0.1385699032
   15      H      -4.4371980014    -1.6696891766     0.7106689897
   16      H      -3.2405673922    -0.5026662901     1.4582081775
   17      H      -2.7567263169    -2.4395025286    -0.8585366375
   18      H      -0.3946890012    -3.1564285326    -0.3516591637
   19      H       1.9642667007    -2.5114084003    -0.3147310535
   20      H       3.3006260256     0.8140593740    -0.6306506057
   21      H       3.7005606402    -1.6886057099     1.0764482613
   22      H       4.9836583905    -0.5268862047     0.4838165451
   23      H       1.9346444838     2.2425366800     0.1632415865
   24      H       0.1941118658     3.9528509987     0.1613584448
   25      H      -2.1747604889     3.3158941444    -0.1276523826
   26      H      -2.7982378062     0.9549308976    -0.3115771898
 ----------------------------------------------------------------

    8    -540.6791981299      5.97e-06  Convergence criterion met
 Total energy in the final basis set =     -540.6791981299

                    Orbital Energies (a.u.)
 --------------------------------------------------------------

 Alpha MOs
 -- Occupied --
-10.1943 -10.1938 -10.1933 -10.1928 -10.1909 -10.1889 -10.1847 -10.1844
-10.1838 -10.1833 -10.1831 -10.1809 -10.1804 -10.1793  -0.8797  -0.8274
 -0.8136  -0.7657  -0.7460  -0.7408  -0.7063  -0.6370  -0.6166  -0.6066
 -0.5762  -0.5488  -0.5077  -0.5060  -0.4924  -0.4700  -0.4492  -0.4437
 -0.4296  -0.4189  -0.4071  -0.4017  -0.3938  -0.3832  -0.3649  -0.3585
 -0.3380  -0.3280  -0.3201  -0.3040  -0.2663  -0.2564  -0.2429  -0.1995

          Ground-State Mulliken Net Atomic Charges

     Atom                 Charge (a.u.)
  ----------------------------------------
      1 C                    -0.332705
      2 C                    -0.145114
      3 C                     0.098282
      4 C                    -0.192714
      5 C                    -0.196691
      6 C                     0.103113
      7 C                    -0.130925
      8 C                    -0.336709
      9 C                     0.074363
     10 C                    -0.198862
     11 C                    -0.128815
     12 C                    -0.134578
     13 C                    -0.201656
     14 C                     0.079258
     15 H                     0.143256
     16 H                     0.155451
     17 H                     0.138487
     18 H                     0.126376
     19 H                     0.130160
     20 H                     0.139383
     21 H                     0.145085
     22 H                     0.141835
     23 H                     0.128699
     24 H                     0.126779
     25 H                     0.126581
     26 H                     0.141660
  ----------------------------------------
  Sum of atomic charges =     0.000000

                    Cartesian Multipole Moments
 -----------------------------------------------------------------
    Charge (ESU x 10^10)
                 0.0000
    Dipole Moment (Debye)
         X      -0.1461      Y      -0.0592      Z      -0.0371
       Tot       0.1620
    Quadrupole Moments (Debye-Ang)
        XX     -73.0907     XY       0.7342     YY     -73.6689
        XZ       0.0592     YZ       0.6404     ZZ     -84.9285

 Total job time:  41.02s(wall), 40.88s(cpu)
        *  Thank you very much for using Q-Chem.  Have a nice day.  *
