 Q-Chem 5.2, Q-Chem, Inc., Pleasanton, CA (2019)
 Q-Chem 5.2.1 for Intel X86 EM64T Linux

User input:
--------------------------------------------------------------
$molecule
0 1
C         2.03667170230000   -3.25267219460000   -0.70005799940000
C         2.24270232120000   -2.12202298720000   -0.03762786590000
C         1.31533076160000   -0.99095511180000    0.00841942010000
C        -0.05664816020000   -1.21609666410000   -0.00701540260000
C        -0.98233786000000   -0.18573414950000    0.08338531740000
C        -2.47817267170000   -0.45969451720000    0.01478901830000
C        -2.82813811750000   -1.82112634280000    0.62906192680000
C        -3.28445700180000    0.61038085820000    0.76102249760000
C        -2.88610906820000   -0.45447859120000   -1.46571482730000
C        -0.48438711840000    1.10507612030000    0.19165520390000
C         0.87869301030000    1.38024546930000    0.20907896500000
C         1.34391891030000    2.75821407790000    0.37155578980000
C         0.73166151080000    3.83224565350000   -0.10926435130000
C         1.79984630530000    0.32516875150000    0.09715779090000
N         3.16111349960000    0.57684650130000    0.08420379550000
H         2.74694974670000   -4.06170122270000   -0.67455294370000
H         1.15740455840000   -3.41102735050000   -1.30177804510000
H         3.15427865480000   -2.00636570560000    0.53722281490000
H        -0.38638545990000   -2.23997241120000   -0.06762348100000
H        -2.41436400790000   -1.90473989740000    1.63152423210000
H        -2.45134652390000   -2.64224884180000    0.02556097350000
H        -3.90892477040000   -1.93090511860000    0.69240014640000
H        -2.91599090040000    0.72628205330000    1.77786657560000
H        -4.33170506900000    0.31805922210000    0.80608005080000
H        -3.23519002300000    1.57223728950000    0.25794534590000
H        -2.33950638840000   -1.21919523830000   -2.01336599890000
H        -2.66417560070000    0.51031009390000   -1.91692839050000
H        -3.95199390250000   -0.64885982630000   -1.56716066720000
H        -1.15569800380000    1.94164186200000    0.29146045910000
H         2.25377724980000    2.88310086340000    0.94719585700000
H        -0.16373805850000    3.76182496130000   -0.70390281220000
H         1.10973106330000    4.82549232420000    0.06456951470000
H         3.42992025270000    1.50878881040000   -0.18498613430000
H         3.73389134220000   -0.14257345290000   -0.32518460750000
$end

$rem
BASIS = 6-31G*
GUI = 2
METHOD = B3LYP
PRINT_ORBITALS false
MOLDEN_FORMAT false
--------------------------------------------------------------

             Standard Nuclear Orientation (Angstroms)
    I     Atom           X                Y                Z
 ----------------------------------------------------------------
    1      C      -1.4605935141    -3.6171531546     0.3953411323
    2      C      -1.8704208291    -2.4929637822    -0.1772579899
    3      C      -1.1669453593    -1.2111803665    -0.1172043518
    4      C       0.2230172553    -1.1815335703    -0.0977592599
    5      C       0.9434172986     0.0049253393    -0.0900355635
    6      C       2.4640457452     0.0050887583    -0.0195329391
    7      C       3.0592033802    -1.2140848104    -0.7355684369
    8      C       3.0604860114     1.2623578080    -0.6641674722
    9      C       2.8624457920    -0.0364632801     1.4629925335
   10      C       0.2165816931     1.1870552026    -0.1021784907
   11      C      -1.1738368389     1.2082113938    -0.1194387587
   12      C      -1.8844841590     2.4861684979    -0.1780678428
   13      C      -1.4808217410     3.6111064030     0.3973992011
   14      C      -1.8852540302    -0.0033919763    -0.1076287604
   15      N      -3.2696012776    -0.0074082083    -0.0964735630
   16      H      -2.0098581943    -4.5377975812     0.2933826732
   17      H      -0.5678569451    -3.6604764228     0.9965054957
   18      H      -2.7870879397    -2.4995944544    -0.7555993826
   19      H       0.7354483082    -2.1290883831    -0.1143684252
   20      H       2.6689697942    -1.2896128375    -1.7480624760
   21      H       2.8392717323    -2.1370435182    -0.2062247320
   22      H       4.1418048596    -1.1183363036    -0.7900584265
   23      H       2.6780924953     1.3917647632    -1.6742176059
   24      H       4.1436888830     1.1716349438    -0.7156605509
   25      H       2.8345343312     2.1543297980    -0.0862284984
   26      H       2.4652846796    -0.9307086923     1.9384670746
   27      H       2.4662926135     0.8309872731     1.9866885784
   28      H       3.9457870586    -0.0398410430     1.5656867097
   29      H       0.7226142795     2.1378112495    -0.1235231559
   30      H      -2.8011599452     2.4889589732    -0.7564259587
   31      H      -0.5884001127     3.6574642323     0.9988382677
   32      H      -2.0350009370     4.5290841000     0.2979199831
   33      H      -3.7055856745     0.8342033517     0.2424133563
   34      H      -3.7006745689    -0.8507367653     0.2444240086
 ----------------------------------------------------------------

    8    -599.6472654807      9.98e-06  Convergence criterion met
 Total energy in the final basis set =     -599.6472654807

                    Orbital Energies (a.u.)
 --------------------------------------------------------------

 Alpha MOs
 -- Occupied --
-14.3393 -10.2203 -10.1904 -10.1869 -10.1869 -10.1801 -10.1800 -10.1764
-10.1764 -10.1726 -10.1724 -10.1715 -10.1641 -10.1640 -10.1639  -0.9241
 -0.8490  -0.8093  -0.8007  -0.7608  -0.7119  -0.7107  -0.6807  -0.6801
 -0.6317  -0.6059  -0.5872  -0.5339  -0.5298  -0.5231  -0.5175  -0.4632
 -0.4582  -0.4525  -0.4414  -0.4348  -0.4282  -0.4185  -0.4062  -0.3980
 -0.3911  -0.3773  -0.3743  -0.3661  -0.3589  -0.3544  -0.3377  -0.3283
 -0.3098  -0.3093  -0.2993  -0.2963  -0.2684  -0.2156  -0.1892

          Ground-State Mulliken Net Atomic Charges

     Atom                 Charge (a.u.)
  ----------------------------------------
      1 C                    -0.338590
      2 C                    -0.154626
      3 C                     0.153649
      4 C                    -0.276518
      5 C                     0.188788
      6 C                     0.014224
      7 C                    -0.450981
      8 C                    -0.451852
      9 C                    -0.427408
     10 C                    -0.278359
     11 C                     0.154141
     12 C                    -0.154884
     13 C                    -0.338383
     14 C                     0.168555
     15 N                    -0.813271
     16 H                     0.139265
     17 H                     0.142834
     18 H                     0.134624
     19 H                     0.120690
     20 H                     0.149485
     21 H                     0.142473
     22 H                     0.137224
     23 H                     0.149270
     24 H                     0.137505
     25 H                     0.142341
     26 H                     0.141058
     27 H                     0.141377
     28 H                     0.135012
     29 H                     0.121261
     30 H                     0.134506
     31 H                     0.142851
     32 H                     0.139218
     33 H                     0.327270
     34 H                     0.327250
  ----------------------------------------
  Sum of atomic charges =     0.000000

                    Cartesian Multipole Moments
 -----------------------------------------------------------------
    Charge (ESU x 10^10)
                 0.0000
    Dipole Moment (Debye)
         X      -1.0724      Y      -0.0039      Z       0.8869
       Tot       1.3916
    Quadrupole Moments (Debye-Ang)
        XX     -81.0142     XY       0.0122     YY     -86.8198
        XZ      -1.8373     YZ      -0.0033     ZZ     -95.3093

 Total job time:  53.73s(wall), 52.73s(cpu)
        *  Thank you very much for using Q-Chem.  Have a nice day.  *
