 Q-Chem 5.2, Q-Chem, Inc., Pleasanton, CA (2019)
 Q-Chem 5.2.1 for Intel X86 EM64T Linux

User input:
--------------------------------------------------------------
$molecule
0 1
C         2.63202933570000    1.32335165780000   -2.72900913650000
C         2.02284493440000    1.99867223690000   -1.76265359660000
C         0.73670927950000    1.67217620550000   -1.15169157130000
C         0.32803060450000    2.38322554160000   -0.02083948370000
C        -0.88759844010000    2.11803366860000    0.60320157840000
C        -1.26815501810000    2.91602489670000    1.76428378490000
C        -2.46289282830000    2.95656005220000    2.34044650450000
C        -1.69472046700000    1.09291266420000    0.10832281590000
C        -1.29358188370000    0.35757862350000   -0.99957935130000
O        -1.98739818110000   -0.67396238440000   -1.55322418920000
C        -3.04465821910000   -1.28213237980000   -0.84050111400000
C        -2.62003394900000   -2.02036030050000    0.43390457250000
C        -1.70582482140000   -3.22367312480000    0.18996254600000
C        -0.30353712170000   -2.88170957480000   -0.31959213360000
C         0.52880176550000   -2.08809751560000    0.68639085560000
C         1.92377713250000   -1.77488588460000    0.13093252230000
C         2.72492781750000   -1.00200467800000    1.15970904410000
O         3.58692393230000   -1.48477283150000    1.83598758220000
O         2.38357709870000    0.28893896810000    1.30134712510000
C        -0.09055310620000    0.66394814130000   -1.63503202910000
H         3.58703915980000    1.63730019650000   -3.11250417620000
H         2.21430096040000    0.43842311140000   -3.17854634810000
H         2.50579444080000    2.87432273300000   -1.34810036970000
H         0.96245392610000    3.16590771040000    0.36898740130000
H        -0.47440879930000    3.53819166250000    2.15808020480000
H        -3.30339317140000    2.38243789060000    1.98901466380000
H        -2.65021278800000    3.58522629510000    3.19362064920000
H        -2.63156734680000    0.88121821000000    0.59563994950000
H        -3.46601962870000   -1.99494752890000   -1.55489371140000
H        -3.81942367720000   -0.54167900460000   -0.59986257530000
H        -3.53563710450000   -2.37343451250000    0.91370972920000
H        -2.13643274600000   -1.32666345800000    1.12188055510000
H        -2.18591101690000   -3.88548562620000   -0.53466586100000
H        -1.61257257420000   -3.77412184170000    1.12941724480000
H        -0.38198370750000   -2.32298759080000   -1.25175923670000
H         0.21562669140000   -3.81755835780000   -0.53914930620000
H         0.63347372920000   -2.66365886210000    1.60888960790000
H         0.02530410660000   -1.15034998780000    0.93265872040000
H         1.83415944460000   -1.18892838660000   -0.78704699620000
H         2.45156891520000   -2.70341435200000   -0.08799930820000
H         1.69145105560000    0.57447592760000    0.68238130630000
H         0.16983478670000    0.09827811110000   -2.51474206030000
$end

$rem
BASIS = 6-31G*
GUI = 2
METHOD = B3LYP
PRINT_ORBITALS false
MOLDEN_FORMAT false
--------------------------------------------------------------

             Standard Nuclear Orientation (Angstroms)
    I     Atom           X                Y                Z
 ----------------------------------------------------------------
    1      C       3.0033727781     0.7255152762    -2.6110066939
    2      C       2.4888934016     1.5374452960    -1.6960820179
    3      C       1.1360300956     1.4827680658    -1.1476383533
    4      C       0.8169978515     2.2973536660    -0.0585540641
    5      C      -0.4556348097     2.2898781689     0.5052350607
    6      C      -0.7319015885     3.1854715904     1.6238566634
    7      C      -1.9231600870     3.4723292318     2.1333867378
    8      C      -1.4193461510     1.4203051975    -0.0069439389
    9      C      -1.1134677806     0.5841223529    -1.0729233943
   10      O      -1.9644975621    -0.3153258242    -1.6374779089
   11      C      -3.1518890608    -0.6863393152    -0.9680795736
   12      C      -2.9386875204    -1.4471247657     0.3453688224
   13      C      -2.2612844765    -2.8099958910     0.1811884144
   14      C      -0.7964972412    -2.7586994415    -0.2601310429
   15      C       0.1228705618    -2.1033232079     0.7693614211
   16      C       1.5771991446    -2.0804405486     0.2825385399
   17      C       2.4609198204    -1.4386852821     1.3336126840
   18      O       3.1807267327    -2.0527201834     2.0672980402
   19      O       2.3668141966    -0.1022698602     1.4244703116
   20      C       0.1552547576     0.6339983573    -1.6498082457
   21      H       4.0182415605     0.8387153044    -2.9499801483
   22      H       2.4460472265    -0.0789454258    -3.0603511507
   23      H       3.1100670388     2.3191916767    -1.2779022674
   24      H       1.5700395623     2.9582344232     0.3454436281
   25      H       0.1463727375     3.6587167585     2.0444198380
   26      H      -2.8401082756     3.0565806076     1.7513912890
   27      H      -2.0275632391     4.1543707853     2.9593016453
   28      H      -2.4018351815     1.4075843038     0.4341094485
   29      H      -3.6669957715    -1.3304336502    -1.6862823456
   30      H      -3.7811277350     0.1957754107    -0.7881575805
   31      H      -3.9270786459    -1.6028599064     0.7835846083
   32      H      -2.3649548648    -0.8345355043     1.0410423249
   33      H      -2.8236905035    -3.3932420999    -0.5516745953
   34      H      -2.3207503838    -3.3351840028     1.1376956834
   35      H      -0.7212846211    -2.2279551032    -1.2087685603
   36      H      -0.4562786780    -3.7832133145    -0.4279762538
   37      H       0.0706068461    -2.6559099126     1.7101841831
   38      H      -0.2029179788    -1.0789968030     0.9646699531
   39      H       1.6459938578    -1.5203580927    -0.6532172219
   40      H       1.9272479652    -3.0993902660     0.1156022539
   41      H       1.7729656662     0.2879525893     0.7620815568
   42      H       0.3446383065    -0.0010433399    -2.4998259461
 ----------------------------------------------------------------

    9    -886.6922398189      5.06e-06  Convergence criterion met
 Total energy in the final basis set =     -886.6922398189

                    Orbital Energies (a.u.)
 --------------------------------------------------------------

 Alpha MOs
 -- Occupied --
-19.1890 -19.1715 -19.1106 -10.2963 -10.2640 -10.2517 -10.2146 -10.2142
-10.2030 -10.2017 -10.2010 -10.1983 -10.1982 -10.1939 -10.1933 -10.1924
-10.1882 -10.1874 -10.1869 -10.1793  -1.0827  -1.0814  -0.9995  -0.8839
 -0.8221  -0.8202  -0.7994  -0.7794  -0.7538  -0.7384  -0.7254  -0.6759
 -0.6546  -0.6359  -0.6115  -0.6011  -0.5906  -0.5701  -0.5568  -0.5343
 -0.5110  -0.5068  -0.5003  -0.4903  -0.4789  -0.4705  -0.4633  -0.4562
 -0.4422  -0.4397  -0.4321  -0.4285  -0.4209  -0.4105  -0.3972  -0.3922
 -0.3908  -0.3807  -0.3759  -0.3726  -0.3676  -0.3609  -0.3501  -0.3478
 -0.3424  -0.3309  -0.3261  -0.3257  -0.3167  -0.2941  -0.2727  -0.2486
 -0.2366  -0.2317

          Ground-State Mulliken Net Atomic Charges

     Atom                 Charge (a.u.)
  ----------------------------------------
      1 C                    -0.345858
      2 C                    -0.104362
      3 C                     0.126595
      4 C                    -0.315546
      5 C                     0.194572
      6 C                    -0.108921
      7 C                    -0.349998
      8 C                    -0.259640
      9 C                     0.404859
     10 O                    -0.524058
     11 C                    -0.042984
     12 C                    -0.299962
     13 C                    -0.258960
     14 C                    -0.262885
     15 C                    -0.278466
     16 C                    -0.374378
     17 C                     0.579836
     18 O                    -0.447204
     19 O                    -0.592541
     20 C                    -0.249562
     21 H                     0.155640
     22 H                     0.148491
     23 H                     0.140331
     24 H                     0.141084
     25 H                     0.139072
     26 H                     0.143942
     27 H                     0.152514
     28 H                     0.139475
     29 H                     0.156219
     30 H                     0.140484
     31 H                     0.142092
     32 H                     0.158747
     33 H                     0.130800
     34 H                     0.137481
     35 H                     0.156491
     36 H                     0.132822
     37 H                     0.152899
     38 H                     0.141730
     39 H                     0.150588
     40 H                     0.166242
     41 H                     0.438327
     42 H                     0.143990
  ----------------------------------------
  Sum of atomic charges =     0.000000

                    Cartesian Multipole Moments
 -----------------------------------------------------------------
    Charge (ESU x 10^10)
                 0.0000
    Dipole Moment (Debye)
         X      -4.5654      Y       1.5077      Z      -2.5411
       Tot       5.4381
    Quadrupole Moments (Debye-Ang)
        XX    -121.4210     XY      10.1940     YY    -117.6091
        XZ     -15.9493     YZ       9.6531     ZZ    -126.5534

 Total job time:  109.02s(wall), 108.34s(cpu)
        *  Thank you very much for using Q-Chem.  Have a nice day.  *
