 Q-Chem 5.2, Q-Chem, Inc., Pleasanton, CA (2019)
 Q-Chem 5.2.1 for Intel X86 EM64T Linux

User input:
--------------------------------------------------------------
$molecule
0 1
C         2.40615644390000   -3.64122937460000   -0.06382030340000
C         1.19227224120000   -3.10188915080000   -0.06161561350000
C         0.83171991170000   -1.69137782540000   -0.01290712620000
C        -0.51193141690000   -1.34364988590000   -0.05470592310000
C        -0.97302538160000   -0.02975703320000    0.00115705090000
C        -2.44189484320000    0.10248811790000   -0.02122168640000
O        -3.19798058430000   -0.83605809600000   -0.10348302210000
O        -2.91221362120000    1.37143712090000    0.06884506130000
C        -4.32670807060000    1.49857338900000    0.04852316200000
C        -0.04678813970000    1.03403197320000    0.08032367980000
N        -0.42929116080000    2.33329247580000    0.13030164350000
C         1.33217036700000    0.71296660530000    0.09806764590000
C         2.38314317430000    1.73529679970000    0.16935197960000
C         2.41999460250000    2.86333654290000   -0.52784627860000
C         1.72475554190000   -0.61748885350000    0.07535557020000
F         3.05356594190000   -0.85115790420000    0.12368451460000
H         2.52827053650000   -4.71054360190000   -0.10483514180000
H         3.31265344580000   -3.06551272330000   -0.02793605410000
H         0.33043671730000   -3.75692781290000   -0.10335676410000
H        -1.25903868350000   -2.12045782420000   -0.12400285430000
H        -4.53733009040000    2.56393359020000    0.10107483070000
H        -4.76655692740000    0.97632999200000    0.90042432000000
H        -4.73119085740000    1.07120083920000   -0.87070671570000
H        -1.40157646400000    2.53212109140000    0.28924797850000
H         0.25894953270000    3.00925028650000    0.41842301860000
H         3.21156350440000    1.48627960040000    0.82133282800000
H         1.66357051480000    3.12291641660000   -1.24990529220000
H         3.24446527100000    3.54942925910000   -0.43243749430000
$end

$rem
BASIS = 6-31G*
GUI = 2
METHOD = B3LYP
PRINT_ORBITALS false
MOLDEN_FORMAT false
--------------------------------------------------------------

             Standard Nuclear Orientation (Angstroms)
    I     Atom           X                Y                Z
 ----------------------------------------------------------------
    1      C       3.6791709584     2.4068933415     0.0632878403
    2      C       2.3509613820     2.3909482136     0.0668472592
    3      C       1.4623009676     1.2379745809     0.0134883970
    4      C       0.0907725142     1.4489852960     0.0629346497
    5      C      -0.8521127970     0.4245383285     0.0036181666
    6      C      -2.2536320422     0.8831087049     0.0356197021
    7      O      -2.5770712142     2.0433512597     0.1279554313
    8      O      -3.1873880950    -0.0961522293    -0.0576058355
    9      C      -4.5369466553     0.3456478442    -0.0280162251
   10      C      -0.4218277716    -0.9179930976    -0.0874532360
   11      N      -1.2867090385    -1.9600864325    -0.1413613721
   12      C       0.9717090356    -1.1676231646    -0.1132287799
   13      C       1.5329954596    -2.5213995817    -0.1970815496
   14      C       1.1243037397    -3.5774154793     0.4940903562
   15      C       1.8580550931    -0.1006523191    -0.0864973984
   16      F       3.1708619567    -0.4105316884    -0.1429500924
   17      H       4.2139661275     3.3406715444     0.1088880602
   18      H       4.2843267779     1.5202026122     0.0181199206
   19      H       1.8181959387     3.3328222248     0.1179625420
   20      H      -0.2883708712     2.4571976787     0.1414202541
   21      H      -5.1515385582    -0.5494502848    -0.0845122749
   22      H      -4.7384735311     1.0054931510    -0.8741437893
   23      H      -4.7356189502     0.8911837550     0.8961899632
   24      H      -2.2591489252    -1.7574900800    -0.2944980800
   25      H      -0.9227715901    -2.8507710201    -0.4377372144
   26      H       2.3895094168    -2.6150241904    -0.8535776344
   27      H       0.3300666104    -3.5224554679     1.2201035172
   28      H       1.6102383840    -4.5326579472     0.3894133124
 ----------------------------------------------------------------

    9    -769.5120622843      6.31e-06  Convergence criterion met
 Total energy in the final basis set =     -769.5120622843

                    Orbital Energies (a.u.)
 --------------------------------------------------------------

 Alpha MOs
 -- Occupied --
-24.7159 -19.2012 -19.1302 -14.3471 -10.3149 -10.2784 -10.2515 -10.2452
-10.2024 -10.2007 -10.1976 -10.1955 -10.1937 -10.1884 -10.1858 -10.1679
 -1.2272  -1.1123  -1.0172  -0.9416  -0.8603  -0.8090  -0.7867  -0.7539
 -0.7308  -0.7171  -0.6424  -0.6380  -0.6031  -0.5766  -0.5615  -0.5538
 -0.5393  -0.5173  -0.4916  -0.4900  -0.4734  -0.4689  -0.4643  -0.4591
 -0.4521  -0.4310  -0.4262  -0.4113  -0.4061  -0.3881  -0.3831  -0.3772
 -0.3698  -0.3521  -0.3367  -0.3329  -0.3080  -0.2998  -0.2761  -0.2659
 -0.2384  -0.1972

          Ground-State Mulliken Net Atomic Charges

     Atom                 Charge (a.u.)
  ----------------------------------------
      1 C                    -0.368265
      2 C                    -0.107517
      3 C                     0.137538
      4 C                    -0.288519
      5 C                     0.045936
      6 C                     0.608083
      7 O                    -0.493130
      8 O                    -0.499164
      9 C                    -0.216093
     10 C                     0.258330
     11 N                    -0.837716
     12 C                     0.023698
     13 C                    -0.129349
     14 C                    -0.358746
     15 C                     0.244228
     16 F                    -0.279177
     17 H                     0.135821
     18 H                     0.153267
     19 H                     0.130741
     20 H                     0.171515
     21 H                     0.159593
     22 H                     0.173603
     23 H                     0.176153
     24 H                     0.363372
     25 H                     0.331413
     26 H                     0.150912
     27 H                     0.164325
     28 H                     0.149148
  ----------------------------------------
  Sum of atomic charges =     0.000000

                    Cartesian Multipole Moments
 -----------------------------------------------------------------
    Charge (ESU x 10^10)
                 0.0000
    Dipole Moment (Debye)
         X      -2.1180      Y      -3.0716      Z      -0.7656
       Tot       3.8088
    Quadrupole Moments (Debye-Ang)
        XX     -82.0207     XY       5.6678     YY     -87.0932
        XZ       0.4738     YZ       1.3363     ZZ     -93.2028

 Total job time:  49.32s(wall), 49.17s(cpu)
        *  Thank you very much for using Q-Chem.  Have a nice day.  *
