 Q-Chem 5.2, Q-Chem, Inc., Pleasanton, CA (2019)
 Q-Chem 5.2.1 for Intel X86 EM64T Linux

User input:
--------------------------------------------------------------
$molecule
0 1
C        -1.64425492690000   -0.11498404640000    2.82820464070000
C        -1.49525166270000    0.34659203270000    1.59394453900000
C        -1.54252673410000   -0.47086232920000    0.38193627240000
C        -2.35371164340000   -1.60162784850000    0.31597732350000
C        -2.44057106080000   -2.35284603180000   -0.83996434310000
C        -1.72366614120000   -1.97720223370000   -1.96382758660000
C        -0.91709632530000   -0.85585647130000   -1.91848170390000
C        -0.80669538140000   -0.10336645310000   -0.75499318390000
C         0.08390652600000    1.07220474760000   -0.74661279320000
C        -0.12344392360000    2.07660050400000   -1.68786541310000
C         0.64725160790000    3.22366587390000   -1.69273946620000
C         1.64036735300000    3.38963434590000   -0.74114975230000
C         1.86514104450000    2.39845797000000    0.19436570260000
C         1.11162797260000    1.22656502520000    0.19326806610000
C         1.43850463130000    0.20044023640000    1.18794097960000
C         1.56633189570000   -1.09310533420000    0.95484591620000
F         1.44048278260000   -1.71741633270000   -0.20891456290000
F         1.88694495390000   -1.98354493630000    1.89335608750000
H        -1.61360679910000    0.53891010890000    3.68293679440000
H        -1.78432308660000   -1.16243842190000    3.03641564260000
H        -1.31977032840000    1.40374528930000    1.43531152470000
H        -2.93897286890000   -1.87807856530000    1.18019129710000
H        -3.07366069620000   -3.22746787960000   -0.86749739980000
H        -1.79189732500000   -2.55681464900000   -2.87220502110000
H        -0.34065175750000   -0.56709971240000   -2.78531920410000
H        -0.91809848150000    1.95535039080000   -2.40980403240000
H         0.46692737980000    3.99204600440000   -2.42960706050000
H         2.23826786780000    4.28849620200000   -0.72895863870000
H         2.64648434770000    2.51802815560000    0.93084960540000
H         1.64774908020000    0.53083782110000    2.19455068750000
$end

$rem
BASIS = 6-31G*
GUI = 2
METHOD = B3LYP
PRINT_ORBITALS false
MOLDEN_FORMAT false
--------------------------------------------------------------

             Standard Nuclear Orientation (Angstroms)
    I     Atom           X                Y                Z
 ----------------------------------------------------------------
    1      C      -1.3882385691     1.4028457300    -2.5943000385
    2      C      -0.7375675627     0.4022475868    -2.0163008642
    3      C      -1.2675293806    -0.4291766259    -0.9358820313
    4      C      -2.6303638061    -0.7061841039    -0.8525070613
    5      C      -3.1336615512    -1.5284026052     0.1367970223
    6      C      -2.2761869670    -2.1041522290     1.0594991546
    7      C      -0.9205811448    -1.8443406316     0.9897981888
    8      C      -0.4050927895    -1.0031166427     0.0106408530
    9      C       1.0453773169    -0.7368728234    -0.0108145717
   10      C       1.9229033698    -1.8134685567    -0.1038263586
   11      C       3.2889882413    -1.6193259514    -0.1804755212
   12      C       3.8026941076    -0.3326936897    -0.1748982015
   13      C       2.9462093958     0.7463773131    -0.0739888547
   14      C       1.5690940713     0.5621652870     0.0296236010
   15      C       0.7275044866     1.7531316727     0.1795591739
   16      C      -0.2583331163     1.9023971658     1.0454559891
   17      F      -0.6740763435     1.0260789024     1.9505330826
   18      F      -0.9807046082     3.0170659388     1.1557724146
   19      H      -0.9508309098     1.9718460468    -3.3967943424
   20      H      -2.3728459684     1.7053606278    -2.2793959495
   21      H       0.2661892565     0.1573868829    -2.3419488697
   22      H      -3.2969937159    -0.2850625925    -1.5901266984
   23      H      -4.1942499700    -1.7270018985     0.1840670859
   24      H      -2.6626707213    -2.7524560162     1.8315665850
   25      H      -0.2478025893    -2.2750305749     1.7170885333
   26      H       1.5156424159    -2.8136767429    -0.1369160260
   27      H       3.9515359205    -2.4685862000    -0.2558831237
   28      H       4.8676432871    -0.1711046192    -0.2480999948
   29      H       3.3429480955     1.7511229517    -0.0570320923
   30      H       0.9631668513     2.6103131877    -0.4335574607
 ----------------------------------------------------------------

    9    -816.5573798922      4.28e-06  Convergence criterion met
 Total energy in the final basis set =     -816.5573798922

                    Orbital Energies (a.u.)
 --------------------------------------------------------------

 Alpha MOs
 -- Occupied --
-24.7310 -24.7262 -10.3473 -10.2043 -10.1968 -10.1937 -10.1920 -10.1915
-10.1900 -10.1895 -10.1889 -10.1883 -10.1854 -10.1842 -10.1837 -10.1831
-10.1830 -10.1754  -1.2747  -1.2143  -0.8803  -0.8545  -0.8037  -0.7880
 -0.7779  -0.7389  -0.7275  -0.7165  -0.6408  -0.6265  -0.6222  -0.5991
 -0.5815  -0.5636  -0.5577  -0.5308  -0.5106  -0.5079  -0.4899  -0.4737
 -0.4659  -0.4509  -0.4452  -0.4334  -0.4319  -0.4258  -0.4236  -0.4185
 -0.4141  -0.4034  -0.3780  -0.3737  -0.3665  -0.3587  -0.3492  -0.3390
 -0.3311  -0.3001  -0.2731  -0.2645  -0.2403  -0.2255  -0.2191

          Ground-State Mulliken Net Atomic Charges

     Atom                 Charge (a.u.)
  ----------------------------------------
      1 C                    -0.343269
      2 C                    -0.124774
      3 C                     0.134591
      4 C                    -0.197660
      5 C                    -0.121729
      6 C                    -0.132168
      7 C                    -0.157281
      8 C                    -0.002192
      9 C                     0.012479
     10 C                    -0.168591
     11 C                    -0.130700
     12 C                    -0.124148
     13 C                    -0.186595
     14 C                     0.145640
     15 C                    -0.341390
     16 C                     0.579415
     17 F                    -0.232318
     18 F                    -0.250323
     19 H                     0.139768
     20 H                     0.142326
     21 H                     0.146185
     22 H                     0.129867
     23 H                     0.127551
     24 H                     0.128046
     25 H                     0.132692
     26 H                     0.136466
     27 H                     0.130428
     28 H                     0.130364
     29 H                     0.130488
     30 H                     0.166832
  ----------------------------------------
  Sum of atomic charges =     0.000000

                    Cartesian Multipole Moments
 -----------------------------------------------------------------
    Charge (ESU x 10^10)
                 0.0000
    Dipole Moment (Debye)
         X       0.9344      Y      -0.3620      Z      -0.5564
       Tot       1.1462
    Quadrupole Moments (Debye-Ang)
        XX     -91.6434     XY       1.7100     YY     -97.5183
        XZ      -0.5991     YZ      -5.0397     ZZ    -102.7276

 Total job time:  80.32s(wall), 80.09s(cpu)
        *  Thank you very much for using Q-Chem.  Have a nice day.  *
