 Q-Chem 5.2, Q-Chem, Inc., Pleasanton, CA (2019)
 Q-Chem 5.2.1 for Intel X86 EM64T Linux

User input:
--------------------------------------------------------------
$molecule
0 1
C         4.06844492670000    1.33332409700000    0.52936292000000
C         3.68115757870000    0.08816618760000    0.27643131450000
C         2.31250770880000   -0.37165792900000    0.08595099890000
C         2.07123432020000   -1.72704651800000   -0.15992261280000
C         0.79456440550000   -2.21237619380000   -0.35054350920000
C        -0.31164100450000   -1.35930487040000   -0.30226664010000
C        -1.68030575390000   -1.80971142270000   -0.51051266980000
C        -2.11167027710000   -3.04952527310000   -0.30960763100000
C        -0.05583072310000   -0.01156127380000   -0.05906799200000
S        -1.47745714380000    1.05233207340000    0.03231473290000
O        -2.03112993760000    1.32941962320000   -1.24689079280000
O        -2.32381395870000    0.71814018000000    1.12229907570000
F        -0.72187188150000    2.45079386540000    0.48362418130000
C         1.20855070670000    0.48580516200000    0.13431526720000
H         5.10913056630000    1.57657744980000    0.65589319070000
H         3.37834501920000    2.15385553340000    0.62148362750000
H         4.42984745290000   -0.69027477790000    0.19844013780000
H         2.90862175750000   -2.40850002370000   -0.20579949250000
H         0.64584820500000   -3.26040500550000   -0.55798745910000
H        -2.36655592840000   -1.04030492830000   -0.83604134180000
H        -1.46747830310000   -3.83435308330000    0.05048516630000
H        -3.13931278370000   -3.31746791220000   -0.47984052260000
H         1.34021496470000    1.53718628630000    0.32214122910000
$end

$rem
BASIS = 6-31G*
GUI = 2
METHOD = B3LYP
PRINT_ORBITALS false
MOLDEN_FORMAT false
--------------------------------------------------------------

             Standard Nuclear Orientation (Angstroms)
    I     Atom           X                Y                Z
 ----------------------------------------------------------------
    1      C       4.1124759137    -1.1905597611    -0.0815651162
    2      C       3.6421796185     0.0503203235    -0.0230662565
    3      C       2.2408067049     0.4447886819     0.0153017857
    4      C       1.9105769789     1.8029336635     0.0615126642
    5      C       0.5994445640     2.2283919197     0.1025535519
    6      C      -0.4533897109     1.3090087004     0.0974316719
    7      C      -1.8555607566     1.6964628215     0.1546272152
    8      C      -2.3366547218     2.8703966079    -0.2378070238
    9      C      -0.1092822077    -0.0403178372     0.0537830075
   10      S      -1.4619236342    -1.1935775421     0.0138485448
   11      O      -2.0911091154    -1.3362307400     1.2801319038
   12      O      -2.2438349020    -1.0570979754    -1.1634611190
   13      F      -0.6023115432    -2.5889636949    -0.1965064597
   14      C       1.1904518637    -0.4788117706     0.0108263979
   15      H       5.1710563749    -1.3828506827    -0.1068695074
   16      H       3.4755044613    -2.0575031321    -0.1074978294
   17      H       4.3407666900     0.8774288618    -0.0016873521
   18      H       2.7049884763     2.5354241119     0.0698435951
   19      H       0.3805387738     3.2831595054     0.1578661715
   20      H      -2.5216198475     0.9345653530     0.5351165143
   21      H      -1.7108055321     3.6404470960    -0.6572588700
   22      H      -3.3867191700     3.0936052426    -0.1717451083
   23      H       1.3911344673    -1.5354128016    -0.0257398583
 ----------------------------------------------------------------

    9   -1034.8490692524      6.57e-06  Convergence criterion met
 Total energy in the final basis set =    -1034.8490692524

                    Orbital Energies (a.u.)
 --------------------------------------------------------------

 Alpha MOs
 -- Occupied --
-89.1504 -24.7254 -19.1732 -19.1723 -10.2483 -10.2335 -10.2251 -10.2243
-10.2181 -10.2174 -10.2101 -10.2089 -10.2007 -10.1996  -8.1751  -6.1420
 -6.1386  -6.1371  -1.2363  -1.1306  -1.0470  -0.9065  -0.8381  -0.8033
 -0.7882  -0.7426  -0.6978  -0.6705  -0.6224  -0.5994  -0.5884  -0.5562
 -0.5277  -0.5100  -0.5066  -0.4938  -0.4747  -0.4716  -0.4622  -0.4370
 -0.4338  -0.4252  -0.4211  -0.4143  -0.3930  -0.3852  -0.3761  -0.3704
 -0.3578  -0.3401  -0.3346  -0.3307  -0.2911  -0.2853  -0.2365

          Ground-State Mulliken Net Atomic Charges

     Atom                 Charge (a.u.)
  ----------------------------------------
      1 C                    -0.345352
      2 C                    -0.116468
      3 C                     0.189064
      4 C                    -0.190389
      5 C                    -0.168429
      6 C                     0.176523
      7 C                    -0.147157
      8 C                    -0.346480
      9 C                    -0.227686
     10 S                     1.219806
     11 O                    -0.467691
     12 O                    -0.455733
     13 F                    -0.319246
     14 C                    -0.215786
     15 H                     0.155869
     16 H                     0.154639
     17 H                     0.136354
     18 H                     0.145214
     19 H                     0.147851
     20 H                     0.187785
     21 H                     0.151540
     22 H                     0.161978
     23 H                     0.173794
  ----------------------------------------
  Sum of atomic charges =     0.000000

                    Cartesian Multipole Moments
 -----------------------------------------------------------------
    Charge (ESU x 10^10)
                -0.0000
    Dipole Moment (Debye)
         X       3.7845      Y       3.3533      Z       0.0021
       Tot       5.0564
    Quadrupole Moments (Debye-Ang)
        XX     -81.8291     XY      -6.1551     YY     -79.8010
        XZ      -0.4866     YZ      -0.1058     ZZ     -93.9752

 Total job time:  38.15s(wall), 38.02s(cpu)
        *  Thank you very much for using Q-Chem.  Have a nice day.  *
