 Q-Chem 5.2, Q-Chem, Inc., Pleasanton, CA (2019)
 Q-Chem 5.2.1 for Intel X86 EM64T Linux

User input:
--------------------------------------------------------------
$molecule
0 1
C         0.63753781720000   -3.99116435080000   -0.13445420940000
C         1.38898855620000   -2.90154590500000   -0.02935041230000
C         0.91353879980000   -1.52549691120000    0.00285518080000
C        -0.42570048330000   -1.16676488060000   -0.04258345840000
C        -0.84481286000000    0.16016306780000    0.00628419510000
C        -2.28208290040000    0.46045989340000    0.01806972950000
O        -2.77468095130000    1.57021079030000    0.11680532400000
O        -3.04955028020000   -0.63745078080000   -0.07741807700000
C        -4.44998850180000   -0.41481204500000   -0.06036817480000
C         0.10680252820000    1.20953841620000    0.07685518110000
N        -0.28599024530000    2.49807120180000    0.11799600850000
C         1.48258661120000    0.86982494640000    0.09963955540000
C         2.55221059940000    1.87035157880000    0.16238689490000
C         2.59611580560000    3.00701663870000   -0.52042867380000
C         1.83142203530000   -0.46994273180000    0.08735641420000
F         3.14896711610000   -0.77015464540000    0.13596773700000
H         1.08115816040000   -4.97141184960000   -0.15035846350000
H        -0.43560565970000   -3.95681352270000   -0.20947326470000
H         2.46355186290000   -3.00911910240000    0.03889261940000
H        -1.17927254500000   -1.93310093450000   -0.10445523490000
H        -4.91312251900000   -1.39139874620000   -0.17544150900000
H        -4.74068726180000    0.24737402940000   -0.87879547430000
H        -4.75148895030000    0.04358843380000    0.88407387740000
H        -1.27815234280000    2.66857823020000    0.22252633310000
H         0.38286016740000    3.20050047730000    0.38335007130000
H         3.38835671170000    1.59713713880000    0.79452572510000
H         1.83194945260000    3.29062770880000   -1.22488606690000
H         3.43436897300000    3.67693635270000   -0.43078907070000
$end

$rem
BASIS = 6-31G*
GUI = 2
METHOD = B3LYP
PRINT_ORBITALS false
MOLDEN_FORMAT false
--------------------------------------------------------------

             Standard Nuclear Orientation (Angstroms)
    I     Atom           X                Y                Z
 ----------------------------------------------------------------
    1      C      -0.4503155392    -4.0231016997     0.1330562930
    2      C      -1.2606543493    -2.9766632101     0.0267036757
    3      C      -0.8617967012    -1.5765129313    -0.0063459515
    4      C       0.4555955906    -1.1444353115     0.0394980973
    5      C       0.8009198229     0.2035490790    -0.0102037128
    6      C       2.2194481646     0.5826431040    -0.0214871242
    7      O       2.6501509253     1.7177956567    -0.1208471991
    8      O       3.0462419001    -0.4711990225     0.0752643110
    9      C       4.4322801085    -0.1716801103     0.0587590221
   10      C      -0.2070789157     1.1987932501    -0.0820947118
   11      N       0.1140788822     2.5069953187    -0.1240528663
   12      C      -1.5620218545     0.7837071061    -0.1053183620
   13      C      -2.6851600373     1.7236748783    -0.1694078034
   14      C      -2.7920639859     2.8567085346     0.5124855210
   15      C      -1.8364476106    -0.5732496667    -0.0921547197
   16      F      -3.1354042207    -0.9457022586    -0.1412065872
   17      H      -0.8392108171    -5.0263100148     0.1495078070
   18      H       0.6192584410    -3.9295637845     0.2086004483
   19      H      -2.3276117039    -3.1433851815    -0.0420072553
   20      H       1.2502481980    -1.8679994246     0.1023640200
   21      H       4.9485019651    -1.1211515412     0.1748433526
   22      H       4.6855618629     0.5061529645     0.8768116404
   23      H       4.7085683257     0.3019306071    -0.8858901291
   24      H       1.0953860847     2.7318794375    -0.2282074179
   25      H      -0.5923432394     3.1712672209    -0.3903068173
   26      H      -3.5046138840     1.4042826609    -0.8017605187
   27      H      -2.0450940205     3.1825670621     1.2171114954
   28      H      -3.6659361610     3.4793118822     0.4218844872
 ----------------------------------------------------------------

    9    -769.5174755552      5.79e-06  Convergence criterion met
 Total energy in the final basis set =     -769.5174755552

                    Orbital Energies (a.u.)
 --------------------------------------------------------------

 Alpha MOs
 -- Occupied --
-24.7145 -19.1941 -19.1390 -14.3424 -10.3178 -10.2768 -10.2499 -10.2412
-10.2006 -10.1992 -10.1988 -10.1980 -10.1926 -10.1862 -10.1862 -10.1726
 -1.2251  -1.1124  -1.0204  -0.9379  -0.8604  -0.8088  -0.7892  -0.7563
 -0.7221  -0.7176  -0.6466  -0.6370  -0.6017  -0.5802  -0.5515  -0.5478
 -0.5313  -0.5195  -0.4987  -0.4881  -0.4828  -0.4741  -0.4656  -0.4532
 -0.4435  -0.4292  -0.4174  -0.4163  -0.4115  -0.4039  -0.3787  -0.3763
 -0.3580  -0.3546  -0.3431  -0.3353  -0.3061  -0.2984  -0.2795  -0.2675
 -0.2387  -0.1947

          Ground-State Mulliken Net Atomic Charges

     Atom                 Charge (a.u.)
  ----------------------------------------
      1 C                    -0.359235
      2 C                    -0.109433
      3 C                     0.116603
      4 C                    -0.265596
      5 C                     0.031270
      6 C                     0.622151
      7 O                    -0.536221
      8 O                    -0.462337
      9 C                    -0.214661
     10 C                     0.271022
     11 N                    -0.842534
     12 C                     0.028868
     13 C                    -0.124769
     14 C                    -0.361335
     15 C                     0.231163
     16 F                    -0.281328
     17 H                     0.141810
     18 H                     0.138510
     19 H                     0.138755
     20 H                     0.162899
     21 H                     0.164816
     22 H                     0.169845
     23 H                     0.168094
     24 H                     0.380454
     25 H                     0.330340
     26 H                     0.149612
     27 H                     0.162667
     28 H                     0.148570
  ----------------------------------------
  Sum of atomic charges =     0.000000

                    Cartesian Multipole Moments
 -----------------------------------------------------------------
    Charge (ESU x 10^10)
                 0.0000
    Dipole Moment (Debye)
         X       0.9952      Y       0.6865      Z      -0.3997
       Tot       1.2733
    Quadrupole Moments (Debye-Ang)
        XX     -82.5855     XY      -7.8187     YY     -85.7007
        XZ       1.5108     YZ      -0.8906     ZZ     -93.3939

 Total job time:  49.43s(wall), 49.28s(cpu)
        *  Thank you very much for using Q-Chem.  Have a nice day.  *
