 Q-Chem 5.2, Q-Chem, Inc., Pleasanton, CA (2019)
 Q-Chem 5.2.1 for Intel X86 EM64T Linux

User input:
--------------------------------------------------------------
$molecule
0 1
C        -4.08195883960000    1.73216343940000    0.32636680400000
C        -3.41612078940000    0.75366060800000   -0.27204594450000
C        -1.97534463200000    0.53272154700000   -0.15676645020000
C        -1.11705009580000    1.63238004250000   -0.08810866620000
C         0.25413187560000    1.47228581890000   -0.05363432850000
C         0.77683466210000    0.19410217210000   -0.11305973010000
S         2.55172008560000   -0.03896601440000   -0.05608642440000
C         2.88861196700000   -0.15525748150000    1.72837592880000
O         2.88022684560000   -1.30361026560000   -0.65662075710000
O         3.20024322180000    1.14204179040000   -0.55785037440000
C        -0.04190025200000   -0.90922278570000   -0.19246973380000
C        -1.42937128050000   -0.76478610520000   -0.19496212410000
C        -2.24134647820000   -1.98011254910000   -0.21310824530000
C        -3.38809624550000   -2.15367323990000    0.43055239120000
H        -5.14116824540000    1.86170524180000    0.18537846820000
H        -3.60253468740000    2.42507042920000    0.99776426430000
H        -3.94287318040000    0.05101920560000   -0.90506900640000
H        -1.54081947540000    2.62502180520000   -0.08922112760000
H         0.92691408710000    2.31427254540000   -0.01708825240000
H         2.33946944170000   -1.00206825060000    2.11855118060000
H         2.57123959380000    0.77022257640000    2.19052453210000
H         3.95417631790000   -0.29959836400000    1.85539820940000
H         0.41221865560000   -1.88675087400000   -0.25288985400000
H        -1.80634807930000   -2.80480051530000   -0.76391453020000
H        -3.82738252510000   -1.38070056050000    1.03838748830000
H        -3.91686722810000   -3.09088048010000    0.39091246140000
$end

$rem
BASIS = 6-31G*
GUI = 2
METHOD = B3LYP
PRINT_ORBITALS false
MOLDEN_FORMAT false
--------------------------------------------------------------

             Standard Nuclear Orientation (Angstroms)
    I     Atom           X                Y                Z
 ----------------------------------------------------------------
    1      C       4.0182289228    -1.7347245751     0.3249455617
    2      C       3.3578169192    -0.7532757290    -0.2746543597
    3      C       1.9159600747    -0.5332367327    -0.1718387667
    4      C       1.0573387033    -1.6334148020    -0.1169774391
    5      C      -0.3141487223    -1.4737869992    -0.0946202259
    6      C      -0.8365961859    -0.1954218171    -0.1523621123
    7      S      -2.6120002001     0.0369783483    -0.1109404613
    8      C      -2.9657496526     0.1439600256     1.6708401033
    9      O      -2.9351495476     1.3046460682    -0.7079968316
   10      O      -3.2554546601    -1.1415511903    -0.6249085919
   11      C      -0.0174321316     0.9084700830    -0.2183294953
   12      C       1.3700377345     0.7643374405    -0.2084718269
   13      C       2.1818353170     1.9799107566    -0.2126631112
   14      C       3.3224141121     2.1503759637     0.4426833487
   15      H       5.0787551623    -1.8633139787     0.1932936898
   16      H       3.5326674279    -2.4311979604     0.9881928928
   17      H       3.8903398414    -0.0472568580    -0.8990323781
   18      H       1.4813550901    -2.6259491542    -0.1192262129
   19      H      -0.9870292485    -2.3160918513    -0.0687841833
   20      H      -2.4205321565     0.9888539850     2.0705585019
   21      H      -2.6525153042    -0.7838339630     2.1311687359
   22      H      -4.0325025428     0.2874192872     1.7885433214
   23      H      -0.4712120290     1.8862031868    -0.2779744376
   24      H       1.7518429157     2.8073484623    -0.7632762150
   25      H       3.7561426301     1.3743585111     1.0506300485
   26      H       3.8512945309     3.0878860512     0.4128869457
 ----------------------------------------------------------------

    9    -974.9237077664      6.89e-06  Convergence criterion met
 Total energy in the final basis set =     -974.9237077664

                    Orbital Energies (a.u.)
 --------------------------------------------------------------

 Alpha MOs
 -- Occupied --
-89.0883 -19.1312 -19.1310 -10.2231 -10.2194 -10.2182 -10.2170 -10.2117
-10.2117 -10.2071 -10.2048 -10.2022 -10.1944 -10.1928  -8.1182  -6.0826
 -6.0818  -6.0814  -1.1108  -1.0013  -0.8929  -0.8242  -0.8053  -0.7754
 -0.7531  -0.7413  -0.6668  -0.6395  -0.6163  -0.5854  -0.5559  -0.5266
 -0.5067  -0.4917  -0.4785  -0.4755  -0.4632  -0.4512  -0.4498  -0.4390
 -0.4333  -0.4242  -0.4057  -0.3946  -0.3875  -0.3681  -0.3559  -0.3289
 -0.3141  -0.3100  -0.3089  -0.2946  -0.2871  -0.2603  -0.2389

          Ground-State Mulliken Net Atomic Charges

     Atom                 Charge (a.u.)
  ----------------------------------------
      1 C                    -0.342444
      2 C                    -0.137004
      3 C                     0.107667
      4 C                    -0.177479
      5 C                    -0.147689
      6 C                    -0.149931
      7 S                     1.073971
      8 C                    -0.625679
      9 O                    -0.522497
     10 O                    -0.521651
     11 C                    -0.214092
     12 C                     0.105377
     13 C                    -0.133434
     14 C                    -0.342226
     15 H                     0.150135
     16 H                     0.146846
     17 H                     0.157370
     18 H                     0.145396
     19 H                     0.175173
     20 H                     0.198614
     21 H                     0.197761
     22 H                     0.216937
     23 H                     0.175580
     24 H                     0.146738
     25 H                     0.165163
     26 H                     0.151398
  ----------------------------------------
  Sum of atomic charges =     0.000000

                    Cartesian Multipole Moments
 -----------------------------------------------------------------
    Charge (ESU x 10^10)
                 0.0000
    Dipole Moment (Debye)
         X       4.1677      Y      -0.1154      Z       3.3923
       Tot       5.3750
    Quadrupole Moments (Debye-Ang)
        XX     -92.5980     XY       0.2682     YY     -85.6004
        XZ     -11.1097     YZ      -1.2165     ZZ     -88.9537

 Total job time:  42.32s(wall), 42.19s(cpu)
        *  Thank you very much for using Q-Chem.  Have a nice day.  *
