 Q-Chem 5.2, Q-Chem, Inc., Pleasanton, CA (2019)
 Q-Chem 5.2.1 for Intel X86 EM64T Linux

User input:
--------------------------------------------------------------
$molecule
0 1
C        -4.61570444610000    1.20472829660000    0.07587506030000
C        -4.00325921590000    0.03035273080000   -0.02163037790000
C        -2.56546872510000   -0.20713727950000   -0.01741479900000
C        -2.10757226760000   -1.54625925140000   -0.00440538300000
C        -0.77690088450000   -1.84265362800000    0.00497175650000
C         0.19240316970000   -0.81622168080000   -0.00189085840000
C         1.57185339090000   -1.08279099370000    0.00768117060000
C         2.50886298110000   -0.07063183230000    0.00014538540000
C         3.92413736310000   -0.41385187870000    0.01446821850000
C         4.95041985190000    0.42901995220000    0.03340414570000
C         2.05159225110000    1.26837778650000   -0.02133878430000
C         0.71993999060000    1.55796483220000   -0.03208355120000
C        -0.25188606080000    0.53225667560000   -0.02103214990000
C        -1.62955609960000    0.80535678170000   -0.02866167660000
H        -5.68969281950000    1.27812044050000    0.06568902850000
H        -4.08217543050000    2.13459555510000    0.17332971050000
H        -4.60603377580000   -0.86632276210000   -0.10551493900000
H        -2.83836339660000   -2.34315378970000    0.00139867120000
H        -0.44415898970000   -2.87114446590000    0.01699541290000
H         1.89588850590000   -2.11499339890000    0.02275887070000
H         4.12460370310000   -1.47887985560000    0.01158512790000
H         4.83058546200000    1.49873058790000    0.04012091250000
H         5.96600553550000    0.07176421730000    0.04392626150000
H         2.77144753980000    2.07192533760000   -0.03070629490000
H         0.38539270860000    2.58595349360000   -0.04889651650000
H        -1.94242359970000    1.83868319000000   -0.04873451380000
$end

$rem
BASIS = 6-31G*
GUI = 2
METHOD = B3LYP
PRINT_ORBITALS false
MOLDEN_FORMAT false
--------------------------------------------------------------

             Standard Nuclear Orientation (Angstroms)
    I     Atom           X                Y                Z
 ----------------------------------------------------------------
    1      C       4.6205794347    -1.1839871477     0.0739934144
    2      C       4.0052172624    -0.0110576236    -0.0225476052
    3      C       2.5668419771     0.2228598244    -0.0180824604
    4      C       2.1056240374     1.5608304121    -0.0039833548
    5      C       0.7742215642     1.8539137537     0.0056859990
    6      C      -0.1925323838     0.8250851116    -0.0019570542
    7      C      -1.5726395159     1.0882222731     0.0078853675
    8      C      -2.5071345512     0.0737470566    -0.0004207846
    9      C      -3.9232557604     0.4134419828     0.0142352122
   10      C      -4.9474424084    -0.4319892035     0.0325398224
   11      C      -2.0465429845    -1.2641059564    -0.0229945254
   12      C      -0.7141765911    -1.5503784625    -0.0340261041
   13      C       0.2551013249    -0.5222706979    -0.0221949493
   14      C       1.6334445728    -0.7919446016    -0.0301000170
   15      H       5.6947462025    -1.2547054175     0.0637041237
   16      H       4.0893640640    -2.1152532949     0.1707267113
   17      H       4.6057609304     0.8871778797    -0.1057402300
   18      H       2.8344354193     2.3595313178     0.0024275137
   19      H       0.4389286892     2.8815656667     0.0185457870
   20      H      -1.8992347166     2.1196049082     0.0238018043
   21      H      -4.1263648151     1.4779711161     0.0122119802
   22      H      -4.8249532671    -1.5014041611     0.0383963325
   23      H      -5.9639111498    -0.0772636294     0.0433897340
   24      H      -2.7644022033    -2.0694298623    -0.0329746225
   25      H      -0.3770797890    -2.5775198912    -0.0516748729
   26      H       1.9488747654    -1.8244749590    -0.0510120245
 ----------------------------------------------------------------

    8    -540.6903272045      4.19e-06  Convergence criterion met
 Total energy in the final basis set =     -540.6903272045

                    Orbital Energies (a.u.)
 --------------------------------------------------------------

 Alpha MOs
 -- Occupied --
-10.1954 -10.1952 -10.1939 -10.1933 -10.1901 -10.1899 -10.1883 -10.1881
-10.1874 -10.1873 -10.1872 -10.1868 -10.1800 -10.1796  -0.8806  -0.8399
 -0.7953  -0.7825  -0.7543  -0.7316  -0.7103  -0.6419  -0.6248  -0.6014
 -0.5813  -0.5539  -0.5168  -0.5027  -0.4919  -0.4620  -0.4521  -0.4470
 -0.4316  -0.4190  -0.4090  -0.4022  -0.3971  -0.3815  -0.3643  -0.3521
 -0.3518  -0.3380  -0.3280  -0.3047  -0.2920  -0.2529  -0.2302  -0.2023

          Ground-State Mulliken Net Atomic Charges

     Atom                 Charge (a.u.)
  ----------------------------------------
      1 C                    -0.348581
      2 C                    -0.118119
      3 C                     0.182222
      4 C                    -0.201066
      5 C                    -0.191327
      6 C                     0.153577
      7 C                    -0.288584
      8 C                     0.182124
      9 C                    -0.109401
     10 C                    -0.357957
     11 C                    -0.185737
     12 C                    -0.193743
     13 C                     0.155071
     14 C                    -0.273129
     15 H                     0.144433
     16 H                     0.143009
     17 H                     0.126862
     18 H                     0.127612
     19 H                     0.129080
     20 H                     0.126882
     21 H                     0.126842
     22 H                     0.143007
     23 H                     0.144560
     24 H                     0.126780
     25 H                     0.129096
     26 H                     0.126489
  ----------------------------------------
  Sum of atomic charges =     0.000000

                    Cartesian Multipole Moments
 -----------------------------------------------------------------
    Charge (ESU x 10^10)
                 0.0000
    Dipole Moment (Debye)
         X       0.0791      Y       0.0614      Z       0.0005
       Tot       0.1002
    Quadrupole Moments (Debye-Ang)
        XX     -73.5288     XY       0.2381     YY     -72.0521
        XZ      -0.1016     YZ      -0.0996     ZZ     -87.4833

 Total job time:  33.72s(wall), 33.61s(cpu)
        *  Thank you very much for using Q-Chem.  Have a nice day.  *
