 Q-Chem 5.2, Q-Chem, Inc., Pleasanton, CA (2019)
 Q-Chem 5.2.1 for Intel X86 EM64T Linux

User input:
--------------------------------------------------------------
$molecule
0 1
C         3.28263231090000   -2.86451167870000    0.20171847760000
C         3.18056290170000   -1.62137632030000   -0.24892061700000
C         1.99269729440000   -0.77697170530000   -0.11330845560000
C         0.72854110260000   -1.34576996610000   -0.15314887390000
C        -0.40110145230000   -0.55233570940000   -0.05283614840000
O        -1.63066432820000   -1.25648435190000   -0.09078486710000
C        -2.76343475950000   -0.61390142390000    0.04248176570000
F        -2.88956739340000    0.07157602790000    1.19712583190000
F        -3.02091486080000    0.28484165830000   -0.92900711680000
F        -3.76582997650000   -1.48986516220000    0.01575860210000
C        -0.29238442710000    0.81704826570000    0.06000369420000
C         0.96559989820000    1.41984798750000    0.07493677530000
C         1.00299077030000    2.88008217180000    0.16268711310000
C         1.85467080220000    3.68263786400000   -0.46451712870000
C         2.12356880530000    0.62221961720000    0.02603898070000
N         3.37550049420000    1.18854007330000    0.11248994080000
H         4.17530299000000   -3.44734639090000    0.05291188410000
H         2.48577330590000   -3.34177814740000    0.74629947310000
H         4.01567608980000   -1.17489155630000   -0.77439060000000
H         0.60913243250000   -2.40866505070000   -0.27753376490000
H        -1.16090967670000    1.45359760660000    0.11955149440000
H         0.21536780530000    3.31427293360000    0.76675461790000
H         2.60846741630000    3.31163627560000   -1.13821807500000
H         1.79072834560000    4.75276489610000   -0.36160977340000
H         3.39899075900000    2.12348096770000    0.49037981090000
H         4.10965152990000    0.58352647410000    0.44249074610000
$end

$rem
BASIS = 6-31G*
GUI = 2
METHOD = B3LYP
PRINT_ORBITALS false
MOLDEN_FORMAT false
--------------------------------------------------------------

             Standard Nuclear Orientation (Angstroms)
    I     Atom           X                Y                Z
 ----------------------------------------------------------------
    1      C      -2.6148685585    -3.3827963121    -0.1805771342
    2      C      -2.7306176954    -2.1315935428     0.2436551663
    3      C      -1.6992516346    -1.1022404344     0.1052689671
    4      C      -0.3584045580    -1.4493966321     0.1747044709
    5      C       0.6235318188    -0.4793776821     0.0719569505
    6      O       1.9530376017    -0.9657852761     0.1420448073
    7      C       2.9639424222    -0.1445600653     0.0097486928
    8      F       2.9927729413     0.5295441371    -1.1580458196
    9      F       3.0503578225     0.8036011884     0.9643943835
   10      F       4.0985745052    -0.8387333024     0.0693836023
   11      C       0.2883837277     0.8497215601    -0.0727346324
   12      C      -1.0525110648     1.2319156718    -0.1179439306
   13      C      -1.3330342820     2.6630435711    -0.2386159347
   14      C      -2.3178832239     3.3230703801     0.3591104657
   15      C      -2.0607910877     0.2519881352    -0.0668810323
   16      N      -3.3883821255     0.5978427100    -0.1826922173
   17      H      -3.3994114294    -4.1044439190    -0.0308511825
   18      H      -1.7400688833    -3.7298304632    -0.7036725776
   19      H      -3.6376308147    -1.8217067130     0.7478165873
   20      H      -0.0643701684    -2.4744088007     0.3242699229
   21      H       1.0385948645     1.6220003336    -0.1347496254
   22      H      -0.6193526224     3.2115785223    -0.8415562295
   23      H      -3.0100138497     2.8438700571     1.0307105895
   24      H      -2.4327743405     4.3864734726     0.2333157098
   25      H      -3.5620902635     1.5079020088    -0.5815462983
   26      H      -4.0048310330    -0.1284073649    -0.5089916244
 ----------------------------------------------------------------

    9    -854.6474632171      2.88e-06  Convergence criterion met
 Total energy in the final basis set =     -854.6474632171

                    Orbital Energies (a.u.)
 --------------------------------------------------------------

 Alpha MOs
 -- Occupied --
-24.7225 -24.7204 -24.7202 -19.2145 -14.3475 -10.4741 -10.2564 -10.2372
-10.2015 -10.2011 -10.2010 -10.1991 -10.1977 -10.1961 -10.1886 -10.1876
 -1.3185  -1.2184  -1.2132  -1.1120  -0.9377  -0.8619  -0.8166  -0.7897
 -0.7488  -0.7337  -0.6877  -0.6501  -0.6379  -0.6189  -0.5945  -0.5931
 -0.5618  -0.5472  -0.5368  -0.5227  -0.4836  -0.4715  -0.4647  -0.4629
 -0.4572  -0.4548  -0.4378  -0.4321  -0.4316  -0.4170  -0.4089  -0.3980
 -0.3945  -0.3923  -0.3817  -0.3804  -0.3632  -0.3440  -0.3116  -0.3104
 -0.2818  -0.2343  -0.2009

          Ground-State Mulliken Net Atomic Charges

     Atom                 Charge (a.u.)
  ----------------------------------------
      1 C                    -0.334824
      2 C                    -0.153534
      3 C                     0.139814
      4 C                    -0.250734
      5 C                     0.341175
      6 O                    -0.524699
      7 C                     0.971452
      8 F                    -0.280919
      9 F                    -0.279299
     10 F                    -0.256638
     11 C                    -0.244110
     12 C                     0.128392
     13 C                    -0.144213
     14 C                    -0.362407
     15 C                     0.201411
     16 N                    -0.817188
     17 H                     0.146531
     18 H                     0.149804
     19 H                     0.142309
     20 H                     0.149563
     21 H                     0.160470
     22 H                     0.143028
     23 H                     0.168311
     24 H                     0.147669
     25 H                     0.329926
     26 H                     0.328710
  ----------------------------------------
  Sum of atomic charges =     0.000000

                    Cartesian Multipole Moments
 -----------------------------------------------------------------
    Charge (ESU x 10^10)
                 0.0000
    Dipole Moment (Debye)
         X      -3.8932      Y       0.3876      Z      -0.9887
       Tot       4.0354
    Quadrupole Moments (Debye-Ang)
        XX     -86.0146     XY       0.4433     YY     -81.6456
        XZ       2.3124     YZ      -1.1111     ZZ     -92.5511

 Total job time:  44.28s(wall), 44.14s(cpu)
        *  Thank you very much for using Q-Chem.  Have a nice day.  *
