 Q-Chem 5.2, Q-Chem, Inc., Pleasanton, CA (2019)
 Q-Chem 5.2.1 for Intel X86 EM64T Linux

User input:
--------------------------------------------------------------
$molecule
0 1
C         3.05247294940000   -1.75110343900000   -0.10895394350000
C         2.62206796130000   -0.51020310080000    0.08120029180000
C         1.23714352810000   -0.05165341590000    0.04224442970000
C         0.99181215860000    1.32226329230000    0.04742939890000
C        -0.30576374790000    1.80813237250000   -0.00244043040000
O        -0.57765108980000    3.14281845480000   -0.00734607330000
C        -1.37423251770000    0.92265573800000   -0.04921169790000
C        -1.15390768620000   -0.45273667640000   -0.03795066190000
C        -2.31177764660000   -1.34070538440000   -0.07461772150000
C        -2.31004729940000   -2.65551818870000    0.10563948460000
C         0.15565791230000   -0.92540230810000    0.00385805770000
H         4.10069083760000   -1.99261848960000   -0.06502243230000
H         2.38950519950000   -2.57178565720000   -0.32210258160000
H         3.34906169380000    0.27025949910000    0.27280644050000
H         1.82304006690000    2.01588278080000    0.08125420670000
H         0.24602771940000    3.64379871800000    0.02650175800000
H        -2.37520424960000    1.32361308090000   -0.08525352630000
H        -3.25419812630000   -0.83869245780000   -0.25635977410000
H        -1.41365925710000   -3.21634140430000    0.30781323930000
H        -3.22151873000000   -3.22696446460000    0.06402999440000
H         0.33494898510000   -1.98714890330000    0.00717611770000
$end

$rem
BASIS = 6-31G*
GUI = 2
METHOD = B3LYP
PRINT_ORBITALS false
MOLDEN_FORMAT false
--------------------------------------------------------------

             Standard Nuclear Orientation (Angstroms)
    I     Atom           X                Y                Z
 ----------------------------------------------------------------
    1      C      -2.4924816246    -2.4391804783     0.1162917808
    2      C      -2.3989427130    -1.1292694017    -0.0750826682
    3      C      -1.1801974345    -0.3272833756    -0.0393137101
    4      C      -1.2995028493     1.0632530163    -0.0453342284
    5      C      -0.1721792303     1.8689846468     0.0015378725
    6      O      -0.2556438297     3.2285254657     0.0055569029
    7      C       1.0894351246     1.2908631565     0.0461102356
    8      C       1.2332398969    -0.0946275411     0.0356292936
    9      C       2.5818227342    -0.6519835299     0.0698984848
   10      C       2.9206833729    -1.9224204762    -0.1100787301
   11      C       0.0909301360    -0.8907096990    -0.0031577294
   12      H      -3.4423203147    -2.9442557243     0.0747502704
   13      H      -1.6389502658    -3.0597331632     0.3281324461
   14      H      -3.3038367018    -0.5641449080    -0.2652295820
   15      H      -2.2822175098     1.5176014084    -0.0774493754
   16      H      -1.1811192721     3.4987800435    -0.0265577238
   17      H       1.9522860542     1.9376716191     0.0798340895
   18      H       3.3622289086     0.0773569596     0.2494316743
   19      H       2.1999409348    -2.6966405151    -0.3101339677
   20      H       3.9492358648    -2.2379619691    -0.0703836115
   21      H       0.1930584628    -1.9626353824    -0.0058530503
 ----------------------------------------------------------------

    9    -462.2615868320      1.98e-06  Convergence criterion met
 Total energy in the final basis set =     -462.2615868320

                    Orbital Energies (a.u.)
 --------------------------------------------------------------

 Alpha MOs
 -- Occupied --
-19.1785 -10.2476 -10.1972 -10.1957 -10.1912 -10.1887 -10.1863 -10.1811
-10.1807 -10.1789 -10.1781  -1.0622  -0.8641  -0.8042  -0.7759  -0.7287
 -0.7238  -0.6392  -0.6277  -0.5824  -0.5537  -0.5172  -0.5066  -0.4787
 -0.4687  -0.4419  -0.4251  -0.4166  -0.4103  -0.3901  -0.3717  -0.3642
 -0.3552  -0.3525  -0.3344  -0.3160  -0.2642  -0.2216  -0.2148

          Ground-State Mulliken Net Atomic Charges

     Atom                 Charge (a.u.)
  ----------------------------------------
      1 C                    -0.348975
      2 C                    -0.116891
      3 C                     0.185699
      4 C                    -0.276524
      5 C                     0.370784
      6 O                    -0.648115
      7 C                    -0.240046
      8 C                     0.183179
      9 C                    -0.115290
     10 C                    -0.350050
     11 C                    -0.255924
     12 H                     0.144205
     13 H                     0.145465
     14 H                     0.124772
     15 H                     0.113598
     16 H                     0.408584
     17 H                     0.136276
     18 H                     0.129474
     19 H                     0.143982
     20 H                     0.144416
     21 H                     0.121384
  ----------------------------------------
  Sum of atomic charges =     0.000000

                    Cartesian Multipole Moments
 -----------------------------------------------------------------
    Charge (ESU x 10^10)
                 0.0000
    Dipole Moment (Debye)
         X      -1.3299      Y       0.0632      Z      -0.0445
       Tot       1.3322
    Quadrupole Moments (Debye-Ang)
        XX     -55.7445     XY      -5.3900     YY     -59.0010
        XZ       0.7551     YZ      -0.1504     ZZ     -68.9789

 Total job time:  22.95s(wall), 22.86s(cpu)
        *  Thank you very much for using Q-Chem.  Have a nice day.  *
