 Q-Chem 5.2, Q-Chem, Inc., Pleasanton, CA (2019)
 Q-Chem 5.2.1 for Intel X86 EM64T Linux

User input:
--------------------------------------------------------------
$molecule
0 1
C         3.75032194590000    0.43254561090000    0.00196644950000
C         2.91710765610000   -0.60374298800000   -0.00157648310000
C         1.46977054120000   -0.52189436900000   -0.00070172180000
C         0.70268135650000   -1.67252655710000   -0.00043387220000
F         1.31016610580000   -2.87330392700000   -0.00093670690000
C        -0.70284189330000   -1.67245889550000    0.00052529590000
F        -1.31044233060000   -2.87317810010000    0.00105932440000
C        -1.46982009000000   -0.52175234130000    0.00068638160000
C        -2.91716240860000   -0.60346377450000    0.00125196850000
C        -3.75028446030000    0.43289800690000   -0.00203059030000
C        -0.72213133340000    0.68626751470000    0.00024771410000
N        -1.21274090850000    1.92419975940000    0.00044302230000
S         0.00014323940000    2.97468151490000    0.00002918850000
N         1.21292488130000    1.92408476830000   -0.00039247810000
C         0.72219911210000    0.68619773570000   -0.00020304970000
H         4.81636586400000    0.28387408760000    0.00109649420000
H         3.38978240190000    1.44568906510000    0.00584058860000
H         3.30754369680000   -1.61303363830000   -0.00512312400000
H        -3.30769222980000   -1.61271475620000    0.00430058420000
H        -3.38966188390000    1.44600860910000   -0.00537759960000
H        -4.81634245050000    0.28433260300000   -0.00148646370000
$end

$rem
BASIS = 6-31G*
GUI = 2
METHOD = B3LYP
PRINT_ORBITALS false
MOLDEN_FORMAT false
--------------------------------------------------------------

             Standard Nuclear Orientation (Angstroms)
    I     Atom           X                Y                Z
 ----------------------------------------------------------------
    1      C       3.7503027993    -0.4072632233    -0.0018789433
    2      C       2.9171343347     0.6290622972     0.0016410642
    3      C       1.4697936166     0.5472777952     0.0007317349
    4      C       0.7027554142     1.6979439646     0.0004422307
    5      F       1.3102933471     2.8986944222     0.0009563179
    6      C      -0.7027678137     1.6979385673    -0.0005507284
    7      F      -1.3103150436     2.8986846868    -0.0011027170
    8      C      -1.4697969838     0.5472659921    -0.0007270410
    9      C      -2.9171356670     0.6290415432    -0.0013276526
   10      C      -3.7503037091    -0.4072833194     0.0019377699
   11      C      -0.7221617559    -0.6607869853    -0.0002670251
   12      N      -1.2128261682    -1.8986974945    -0.0004706722
   13      S       0.0000114302    -2.9492329805    -0.0000247457
   14      N       1.2128396036    -1.8986899619     0.0004231451
   15      C       0.7221686800    -0.6607811911     0.0002184628
   16      H       4.8163532815    -0.2586389251    -0.0009837735
   17      H       3.3897184650    -1.4203907148    -0.0057589218
   18      H       3.3076150028     1.6383356595     0.0051942740
   19      H      -3.3076207029     1.6383098165    -0.0043884750
   20      H      -3.3897260961    -1.4204098874     0.0052962777
   21      H      -4.8163551032    -0.2586706891     0.0013675986
 ----------------------------------------------------------------

    9   -1091.9734786084      6.51e-06  Convergence criterion met
 Total energy in the final basis set =    -1091.9734786084

                    Orbital Energies (a.u.)
 --------------------------------------------------------------

 Alpha MOs
 -- Occupied --
-88.9828 -24.7302 -24.7302 -14.3720 -14.3720 -10.2990 -10.2986 -10.2533
-10.2530 -10.2267 -10.2267 -10.1999 -10.1999 -10.1847 -10.1847  -8.0389
 -6.0043  -5.9984  -5.9964  -1.2499  -1.2342  -1.0409  -0.9045  -0.8892
 -0.8208  -0.7840  -0.7772  -0.7368  -0.6800  -0.6388  -0.6327  -0.5931
 -0.5690  -0.5527  -0.5493  -0.5408  -0.5013  -0.4974  -0.4676  -0.4639
 -0.4625  -0.4610  -0.4350  -0.4225  -0.4139  -0.4124  -0.3915  -0.3769
 -0.3720  -0.3669  -0.3599  -0.3190  -0.3019  -0.2965  -0.2804  -0.2650
 -0.2189

          Ground-State Mulliken Net Atomic Charges

     Atom                 Charge (a.u.)
  ----------------------------------------
      1 C                    -0.351327
      2 C                    -0.109432
      3 C                     0.114196
      4 C                     0.229317
      5 F                    -0.273766
      6 C                     0.229317
      7 F                    -0.273767
      8 C                     0.114197
      9 C                    -0.109432
     10 C                    -0.351327
     11 C                     0.191573
     12 N                    -0.576126
     13 S                     0.586437
     14 N                    -0.576124
     15 C                     0.191574
     16 H                     0.145874
     17 H                     0.191117
     18 H                     0.145354
     19 H                     0.145354
     20 H                     0.191116
     21 H                     0.145875
  ----------------------------------------
  Sum of atomic charges =     0.000000

                    Cartesian Multipole Moments
 -----------------------------------------------------------------
    Charge (ESU x 10^10)
                 0.0000
    Dipole Moment (Debye)
         X       0.0000      Y      -0.9481      Z       0.0002
       Tot       0.9481
    Quadrupole Moments (Debye-Ang)
        XX     -85.1750     XY       0.0000     YY     -89.2203
        XZ      -0.0036     YZ       0.0013     ZZ     -91.2426

 Total job time:  43.16s(wall), 43.03s(cpu)
        *  Thank you very much for using Q-Chem.  Have a nice day.  *
