 Q-Chem 5.4, Q-Chem, Inc., Pleasanton, CA (2021)
 Q-Chem 5.4.2 for Intel X86 EM64T Linux

User input:
--------------------------------------------------------------
$molecule
0 1
C           -2.33480178700000        3.30025857590000        0.16577314590000
C           -2.81763362610000        2.08484085940000       -0.06190461860000
C           -2.05161320750000        0.84550494650000       -0.10957565100000
C           -2.72466159180000       -0.37840990110000       -0.09713634710000
C           -2.02749441460000       -1.56558157060000       -0.10470626670000
C           -0.63484848480000       -1.58362989640000       -0.14956437360000
O           -0.05852887580000       -2.82223706130000       -0.14509851390000
C            1.10524980550000       -3.05392061890000        0.62546986850000
C            0.06105099090000       -0.36490652770000       -0.23046275310000
C            1.50797537420000       -0.33553632990000       -0.44320105970000
C            2.34301032580000        0.60026565170000       -0.02380176560000
F            2.05717586100000        1.65758436060000        0.72922224760000
F            3.64937183640000        0.59470061090000       -0.28847467460000
C           -0.66354263500000        0.82309666340000       -0.19100192310000
H           -2.97897451510000        4.16227607930000        0.18992120330000
H           -1.29018937950000        3.48703188030000        0.34639731160000
H           -3.88325098110000        1.96001470100000       -0.21079955390000
H           -3.80409505920000       -0.39404007980000       -0.06037580920000
H           -2.54227753840000       -2.51322117440000       -0.07386465480000
H            0.92765149860000       -3.96473477510000        1.20257997800000
H            1.31103775170000       -2.23187921710000        1.31261409740000
H            1.97152382260000       -3.21654787960000       -0.02119899360000
H            1.94265821920000       -1.13057906290000       -1.02935108550000
H           -0.12766995880000        1.75458240360000       -0.27071301430000
$end

$rem
BASIS = 6-31G*
GUI = 2
METHOD = B3LYP
PRINT_ORBITALS false
MOLDEN_FORMAT false
$end
--------------------------------------------------------------

             Standard Nuclear Orientation (Angstroms)
    I     Atom           X                Y                Z
 ----------------------------------------------------------------
    1      C       3.4968843945    -1.9822667418     0.1890327085
    2      C       3.3971035676    -0.6751310768    -0.0198790307
    3      C       2.1634459028     0.0994204078    -0.0762002313
    4      C       2.2265008370     1.4943712968    -0.0408094057
    5      C       1.0769685420     2.2518834588    -0.0558685170
    6      C      -0.1795176523     1.6540921336    -0.1312916738
    7      O      -1.2435609536     2.5109023793    -0.1313132505
    8      C      -2.4028233688     2.1930085773     0.6149359741
    9      C      -0.2642103763     0.2547866914    -0.2355926785
   10      C      -1.5456181466    -0.4068719901    -0.4803625336
   11      C      -1.8884918680    -1.6216042137    -0.0856883348
   12      F      -1.1778485822    -2.4558614878     0.6664222149
   13      F      -3.0583606310    -2.1890632171    -0.3790489860
   14      C       0.9097547115    -0.4918661910    -0.1880520900
   15      H       4.4550074851    -2.4717070010     0.2216545486
   16      H       2.6392537503    -2.6137417605     0.3453446312
   17      H       4.3003985900    -0.0904604500    -0.1444180994
   18      H       3.1872837727     1.9842593465     0.0198379305
   19      H       1.1197476229     3.3288210580    -0.0074015598
   20      H      -2.6554563863     3.0795117947     1.2018501657
   21      H      -2.2359803371     1.3538785153     1.2919087048
   22      H      -3.2408366240     1.9667009804    -0.0495770594
   23      H      -2.2767734799     0.1237595469    -1.0706641736
   24      H       0.8417468939    -1.5628528350    -0.2857332679
 ----------------------------------------------------------------

    9    -700.0276109141      4.07e-06  Convergence criterion met
 Total energy in the final basis set =     -700.0276109141

                    Orbital Energies (a.u.)
 --------------------------------------------------------------

 Alpha MOs
 -- Occupied --
-24.7429 -24.7357 -19.1754 -10.3574 -10.2490 -10.2405 -10.2063 -10.2049
-10.1907 -10.1887 -10.1885 -10.1876 -10.1842 -10.1760  -1.2849  -1.2248
 -1.0645  -0.8683  -0.8147  -0.7883  -0.7406  -0.7393  -0.6926  -0.6470
 -0.6236  -0.6028  -0.5784  -0.5562  -0.5366  -0.5213  -0.5182  -0.4890
 -0.4771  -0.4696  -0.4443  -0.4426  -0.4405  -0.4357  -0.4311  -0.4216
 -0.4077  -0.3913  -0.3793  -0.3583  -0.3479  -0.3466  -0.3176  -0.2905
 -0.2720  -0.2330  -0.2076

          Ground-State Mulliken Net Atomic Charges

     Atom                 Charge (a.u.)
  ----------------------------------------
      1 C                    -0.353221
      2 C                    -0.118290
      3 C                     0.182239
      4 C                    -0.199841
      5 C                    -0.168446
      6 C                     0.291513
      7 O                    -0.515408
      8 C                    -0.215764
      9 C                     0.148059
     10 C                    -0.323213
     11 C                     0.555608
     12 F                    -0.237156
     13 F                    -0.248732
     14 C                    -0.262979
     15 H                     0.142230
     16 H                     0.143636
     17 H                     0.126132
     18 H                     0.130217
     19 H                     0.137394
     20 H                     0.161857
     21 H                     0.163738
     22 H                     0.151952
     23 H                     0.172469
     24 H                     0.136007
  ----------------------------------------
  Sum of atomic charges =     0.000000

                    Cartesian Multipole Moments
 -----------------------------------------------------------------
    Charge (ESU x 10^10)
                 0.0000
    Dipole Moment (Debye)
         X      -0.5339      Y       0.6525      Z       0.5032
       Tot       0.9818
    Quadrupole Moments (Debye-Ang)
        XX     -72.1134     XY      -2.4430     YY     -79.1506
        XZ      -1.2478     YZ       2.1787     ZZ     -81.3740

 Total job time:  64.38s(wall), 55.56s(cpu)
        *  Thank you very much for using Q-Chem.  Have a nice day.  *
