 Q-Chem 5.2, Q-Chem, Inc., Pleasanton, CA (2019)
 Q-Chem 5.2.1 for Intel X86 EM64T Linux

User input:
--------------------------------------------------------------
$molecule
0 1
C         3.73444583580000    1.14182693370000   -0.04205452500000
C         3.12955210480000   -0.03842747850000    0.01589694080000
C         1.69372563370000   -0.28792011930000    0.01893948720000
C         0.73318407380000    0.72346307320000   -0.00996052720000
C        -0.61791087610000    0.40211142420000   -0.00803710250000
O        -1.60448098540000    1.33088922980000   -0.03258026990000
C        -1.26108674710000    2.69597013740000   -0.05448975300000
C        -0.98516943700000   -0.96319561730000    0.02278053250000
C        -2.34093260980000   -1.48534685500000    0.02533879540000
C        -3.48284915900000   -0.80754403030000   -0.02270988790000
C         0.07046861900000   -1.87866018960000    0.05422182060000
N         1.34839373920000   -1.57564395920000    0.05308520340000
H         4.80811541790000    1.21901951250000   -0.04051666830000
H         3.19900906450000    2.07501355250000   -0.09446798750000
H         3.71390988440000   -0.94708792130000    0.06355597780000
H         1.05331445230000    1.75120390180000   -0.03235700240000
H        -2.20733750470000    3.23509260790000   -0.06678022510000
H        -0.68892849880000    2.95312371160000   -0.95149202320000
H        -0.69493055240000    2.98329439190000    0.83711928440000
H        -2.38030832050000   -2.56809360930000    0.06981558020000
H        -3.52039337980000    0.26425889350000   -0.06998363570000
H        -4.42797509500000   -1.32510214000000   -0.01635383740000
H        -0.14860233600000   -2.93937285580000    0.08180352610000
$end

$rem
BASIS = 6-31G*
GUI = 2
METHOD = B3LYP
PRINT_ORBITALS false
MOLDEN_FORMAT false
--------------------------------------------------------------

             Standard Nuclear Orientation (Angstroms)
    I     Atom           X                Y                Z
 ----------------------------------------------------------------
    1      C       3.8399569995    -0.6892188132     0.0282386761
    2      C       3.1099981216     0.4191170942    -0.0034918872
    3      C       1.6555291124     0.5105911915    -0.0059169534
    4      C       0.8110064089    -0.5998825388    -0.0050458321
    5      C      -0.5670761356    -0.4277892832    -0.0042992219
    6      O      -1.4464776122    -1.4589059970    -0.0058882959
    7      C      -0.9562573949    -2.7785402987    -0.0156330963
    8      C      -1.0810330525     0.8896854271    -0.0035442745
    9      C      -2.4856579505     1.2608278997     0.0013955193
   10      C      -3.5468806266     0.4616061118     0.0287764554
   11      C      -0.1315159574     1.9152701922    -0.0089125778
   12      N       1.1718342815     1.7534399437    -0.0102786964
   13      H       4.9156412820    -0.6488412869     0.0288793991
   14      H       3.4094467715    -1.6762150098     0.0561030645
   15      H       3.5918074053     1.3869579204    -0.0270109809
   16      H       1.2413048802    -1.5868364612    -0.0062511439
   17      H      -1.8380691080    -3.4177463235    -0.0199168749
   18      H      -0.3604588598    -2.9935928057     0.8770497249
   19      H      -0.3611499868    -2.9805921040    -0.9117787208
   20      H      -2.6428525246     2.3335894556    -0.0170889334
   21      H      -3.4673438024    -0.6087340186     0.0500316246
   22      H      -4.5428134873     0.8730437419     0.0313542173
   23      H      -0.4649487920     2.9461333671    -0.0117149786
 ----------------------------------------------------------------

    9    -517.6089446029      1.86e-06  Convergence criterion met
 Total energy in the final basis set =     -517.6089446029

                    Orbital Energies (a.u.)
 --------------------------------------------------------------

 Alpha MOs
 -- Occupied --
-19.1961 -14.3148 -10.2652 -10.2522 -10.2244 -10.2144 -10.1985 -10.1923
-10.1885 -10.1872 -10.1842 -10.1725  -1.0871  -0.9448  -0.8227  -0.7996
 -0.7680  -0.7307  -0.7218  -0.6512  -0.6178  -0.5755  -0.5728  -0.5351
 -0.5054  -0.4859  -0.4799  -0.4623  -0.4569  -0.4379  -0.4265  -0.4102
 -0.4089  -0.3849  -0.3765  -0.3574  -0.3572  -0.3247  -0.3166  -0.2772
 -0.2501  -0.2496  -0.2136

          Ground-State Mulliken Net Atomic Charges

     Atom                 Charge (a.u.)
  ----------------------------------------
      1 C                    -0.350668
      2 C                    -0.087137
      3 C                     0.301337
      4 C                    -0.257380
      5 C                     0.367832
      6 O                    -0.502952
      7 C                    -0.219787
      8 C                     0.117700
      9 C                    -0.117075
     10 C                    -0.354632
     11 C                    -0.032300
     12 N                    -0.496778
     13 H                     0.149444
     14 H                     0.138586
     15 H                     0.147105
     16 H                     0.133450
     17 H                     0.174924
     18 H                     0.159479
     19 H                     0.159775
     20 H                     0.127751
     21 H                     0.166726
     22 H                     0.135924
     23 H                     0.138675
  ----------------------------------------
  Sum of atomic charges =     0.000000

                    Cartesian Multipole Moments
 -----------------------------------------------------------------
    Charge (ESU x 10^10)
                 0.0000
    Dipole Moment (Debye)
         X      -0.4393      Y      -3.0666      Z      -0.0032
       Tot       3.0979
    Quadrupole Moments (Debye-Ang)
        XX     -67.6318     XY      -3.3122     YY     -62.4217
        XZ       0.0029     YZ      -0.0583     ZZ     -73.6828

 Total job time:  28.42s(wall), 28.32s(cpu)
        *  Thank you very much for using Q-Chem.  Have a nice day.  *
