 Q-Chem 5.4, Q-Chem, Inc., Pleasanton, CA (2021)
 Q-Chem 5.4.2 for Intel X86 EM64T Linux

User input:
--------------------------------------------------------------
$molecule
0 1
C           -1.64938934930000        4.67405476430000        0.17317148450000
C           -0.53944659430000        3.95284866640000        0.07723715660000
C           -0.44466417350000        2.49644767680000        0.07015374660000
C           -1.55872671080000        1.66427597990000       -0.01032844870000
C           -1.43961766760000        0.27441648880000       -0.01257761530000
C           -2.66290863990000       -0.51027916230000       -0.10184152060000
C           -2.79763733910000       -1.82789196790000       -0.12621157470000
F           -1.84737679400000       -2.75101284690000       -0.07545738240000
F           -3.98079224480000       -2.43278800140000       -0.21072941270000
C           -0.17048228890000       -0.29791841190000        0.06844448280000
C            0.94987416090000        0.52017038800000        0.14557752370000
C            2.32340334890000       -0.04454997360000        0.22938732700000
O            3.32334128370000        0.62993385530000        0.28187206260000
O            2.32341868220000       -1.38099043270000        0.25192019630000
C            3.59410554870000       -2.02768344410000        0.31551326570000
C            4.22922237340000       -2.14311333590000       -1.06282242310000
C            0.81416205090000        1.90307062890000        0.14254074460000
H           -1.61687511500000        5.74982006890000        0.17482512230000
H           -2.62841001480000        4.23481710560000        0.26069996200000
H            0.41407231650000        4.46087035300000        0.00922342160000
H           -2.54351700620000        2.09991167910000       -0.08115829100000
H           -3.58885637430000        0.04406274480000       -0.15609947160000
H           -0.03706220150000       -1.36592398710000        0.07043956430000
H            3.38817215490000       -3.01299433810000        0.73872921570000
H            4.24762032770000       -1.46043144000000        0.98667356730000
H            3.55913635500000       -2.66320836920000       -1.74323161140000
H            5.16130699210000       -2.69585877200000       -0.98898647600000
H            4.43745588020000       -1.15230126720000       -1.45914077940000
H            1.70745454940000        2.50716810250000        0.20252608980000
$end

$rem
BASIS = 6-31G*
GUI = 2
METHOD = B3LYP
PRINT_ORBITALS false
MOLDEN_FORMAT false
$end
--------------------------------------------------------------

             Standard Nuclear Orientation (Angstroms)
    I     Atom           X                Y                Z
 ----------------------------------------------------------------
    1      C       3.2784155200    -3.6948699363    -0.0760628887
    2      C       1.9814357110    -3.4192200239    -0.1324104791
    3      C       1.3677434063    -2.0970650687    -0.0587507612
    4      C       2.1049781807    -0.9157624157    -0.0923868032
    5      C       1.4926897720     0.3354017521    -0.0176033987
    6      C       2.3487298295     1.5124013880    -0.0625855030
    7      C       1.9987687656     2.7891132855    -0.0137673511
    8      F       0.7807554309     3.3028113731     0.0876281127
    9      F       2.8823084377     3.7839660168    -0.0640037724
   10      C       0.1044025959     0.4057686936     0.0943949882
   11      C      -0.6438450570    -0.7645207886     0.1254649564
   12      C      -2.1266811093    -0.7390871603     0.2397714433
   13      O      -2.8149012362    -1.7309047711     0.2542573028
   14      O      -2.6081652655     0.5040610564     0.3363962324
   15      C      -4.0250530852     0.6440052011     0.4351159613
   16      C      -4.6858911340     0.5936675764    -0.9350175756
   17      C      -0.0186868178    -2.0029352806     0.0457981679
   18      H       3.6360407523    -4.7083131797    -0.1340963793
   19      H       4.0346962455    -2.9369048138     0.0361902008
   20      H       1.2741205109    -4.2330317596    -0.2289810855
   21      H       3.1790149620    -0.9620648176    -0.1867707789
   22      H       3.4110235278     1.3334653334    -0.1470370800
   23      H      -0.4050899760     1.3518751027     0.1555569898
   24      H      -4.1800351939     1.6138011433     0.9124358092
   25      H      -4.4167945222    -0.1549834934     1.0734483713
   26      H      -4.2618731423     1.3552140121    -1.5851918201
   27      H      -5.7529490175     0.7678848244    -0.8311098066
   28      H      -4.5305441906    -0.3834771216    -1.3857875332
   29      H      -0.6326922240    -2.8910953588     0.0717312286
 ----------------------------------------------------------------

    9    -852.7132215292      6.70e-06  Convergence criterion met
 Total energy in the final basis set =     -852.7132215292

                    Orbital Energies (a.u.)
 --------------------------------------------------------------

 Alpha MOs
 -- Occupied --
-24.7495 -24.7385 -19.1914 -19.1322 -10.3622 -10.3136 -10.2427 -10.2149
-10.2080 -10.2045 -10.2040 -10.2002 -10.1972 -10.1958 -10.1950 -10.1860
-10.1797  -1.2909  -1.2294  -1.1088  -1.0171  -0.8811  -0.8212  -0.8036
 -0.7732  -0.7518  -0.7343  -0.6738  -0.6517  -0.6413  -0.6109  -0.5900
 -0.5773  -0.5506  -0.5269  -0.5241  -0.5150  -0.4983  -0.4934  -0.4738
 -0.4582  -0.4545  -0.4457  -0.4455  -0.4414  -0.4344  -0.4195  -0.4116
 -0.4078  -0.3951  -0.3830  -0.3794  -0.3726  -0.3609  -0.3511  -0.3396
 -0.3243  -0.2994  -0.2906  -0.2738  -0.2400  -0.2257

          Ground-State Mulliken Net Atomic Charges

     Atom                 Charge (a.u.)
  ----------------------------------------
      1 C                    -0.352543
      2 C                    -0.108241
      3 C                     0.173211
      4 C                    -0.248028
      5 C                     0.197701
      6 C                    -0.298936
      7 C                     0.548349
      8 F                    -0.230764
      9 F                    -0.247142
     10 C                    -0.232293
     11 C                     0.047757
     12 C                     0.604748
     13 O                    -0.492442
     14 O                    -0.466631
     15 C                    -0.045628
     16 C                    -0.464991
     17 C                    -0.236294
     18 H                     0.148728
     19 H                     0.143177
     20 H                     0.135461
     21 H                     0.130785
     22 H                     0.160771
     23 H                     0.163054
     24 H                     0.152460
     25 H                     0.168610
     26 H                     0.157445
     27 H                     0.151924
     28 H                     0.179287
     29 H                     0.160464
  ----------------------------------------
  Sum of atomic charges =     0.000000

                    Cartesian Multipole Moments
 -----------------------------------------------------------------
    Charge (ESU x 10^10)
                 0.0000
    Dipole Moment (Debye)
         X       0.8005      Y       0.6573      Z      -0.1777
       Tot       1.0509
    Quadrupole Moments (Debye-Ang)
        XX     -85.0048     XY      -9.9452     YY     -97.6816
        XZ      -0.2967     YZ       0.9019     ZZ     -97.8889

 Total job time:  91.10s(wall), 80.33s(cpu)
        *  Thank you very much for using Q-Chem.  Have a nice day.  *
