 Q-Chem 5.2, Q-Chem, Inc., Pleasanton, CA (2019)
 Q-Chem 5.2.1 for Intel X86 EM64T Linux

User input:
--------------------------------------------------------------
$molecule
0 1
C         4.17758371080000   -0.19079253770000   -0.07759898080000
C         3.09402390590000    0.54734987970000    0.13407453740000
C         1.70873911960000    0.10296725510000    0.06816096510000
C         1.33656630940000   -1.20822459460000   -0.23144538260000
C         0.00687788520000   -1.56289504930000   -0.27671483960000
C        -1.00921939120000   -0.63747000070000   -0.03112894330000
C        -2.40889785000000   -1.05543004100000   -0.10404602570000
C        -2.85427169620000   -2.26005303540000    0.22795400420000
C        -0.65029858970000    0.68322305690000    0.27205725970000
C        -1.67675622030000    1.75073963490000    0.54188952610000
C        -2.06278596400000    2.47145729730000   -0.75191265920000
C         0.69114098650000    1.02385627370000    0.31565068990000
H         5.16532962030000    0.23126505220000   -0.00445826850000
H         4.13132994970000   -1.23607584330000   -0.33029993160000
H         3.21731233320000    1.59467160150000    0.38428995340000
H         2.08996440360000   -1.95346437130000   -0.43398766090000
H        -0.26235096430000   -2.57741754260000   -0.53142657190000
H        -3.11362814900000   -0.31308950130000   -0.45345756290000
H        -2.20249976450000   -3.02758171450000    0.61076742590000
H        -3.89619147390000   -2.51964492610000    0.14617018660000
H        -1.25992545930000    2.48003096540000    1.24019780330000
H        -2.56475531600000    1.31875668060000    1.00525067890000
H        -1.18625112650000    2.93392902350000   -1.20040833260000
H        -2.79964178240000    3.24613757060000   -0.55086009900000
H        -2.48139655040000    1.77340938720000   -1.47350761160000
H         0.95960258690000    2.04446038640000    0.55567665610000
$end

$rem
BASIS = 6-31G*
GUI = 2
METHOD = B3LYP
PRINT_ORBITALS false
MOLDEN_FORMAT false
--------------------------------------------------------------

             Standard Nuclear Orientation (Angstroms)
    I     Atom           X                Y                Z
 ----------------------------------------------------------------
    1      C       4.1997277097    -0.2417843787    -0.1011662802
    2      C       3.1226462995     0.5023345489     0.1223161912
    3      C       1.7339646786     0.0677341380     0.0629841259
    4      C       1.3508985117    -1.2390345304    -0.2421659848
    5      C       0.0185581804    -1.5844298021    -0.2806771316
    6      C      -0.9895647255    -0.6537016429    -0.0225862012
    7      C      -2.3925066016    -1.0617400160    -0.0886623894
    8      C      -2.8438281785    -2.2653598333     0.2389144886
    9      C      -0.6196614987     0.6626351715     0.2862910588
   10      C      -1.6370168712     1.7353687710     0.5695701332
   11      C      -2.0267726044     2.4666723953    -0.7171553559
   12      C       0.7243228773     0.9939248081     0.3229610182
   13      H       5.1907850685     0.1731319779    -0.0320729867
   14      H       4.1446858607    -1.2851471225    -0.3599691965
   15      H       3.2547165693     1.5472307555     0.3781285068
   16      H       2.0978459540    -1.9880772953    -0.4543424267
   17      H      -0.2592530513    -2.5955147128    -0.5398032638
   18      H      -3.0944943837    -0.3125082302    -0.4287617550
   19      H      -2.1947444345    -3.0396278176     0.6126154678
   20      H      -3.8880107429    -2.5173979408     0.1625408664
   21      H      -1.2105859628     2.4574916184     1.2695297404
   22      H      -2.5248163543     1.3065326647     1.0362251412
   23      H      -1.1501304141     2.9259813947    -1.1686811039
   24      H      -2.7569884276     3.2450519248    -0.5063988269
   25      H      -2.4549264839     1.7759478311    -1.4401967206
   26      H       1.0013101393     2.0111871754     0.5674445209
 ----------------------------------------------------------------

    8    -465.6736196889      4.42e-06  Convergence criterion met
 Total energy in the final basis set =     -465.6736196889

                    Orbital Energies (a.u.)
 --------------------------------------------------------------

 Alpha MOs
 -- Occupied --
-10.1901 -10.1894 -10.1885 -10.1882 -10.1872 -10.1840 -10.1821 -10.1808
-10.1802 -10.1788 -10.1769 -10.1750  -0.8670  -0.8089  -0.7856  -0.7623
 -0.7273  -0.7093  -0.6378  -0.6247  -0.5969  -0.5644  -0.5392  -0.5064
 -0.4803  -0.4660  -0.4458  -0.4371  -0.4268  -0.4178  -0.4110  -0.3951
 -0.3838  -0.3724  -0.3589  -0.3563  -0.3490  -0.3308  -0.3228  -0.3079
 -0.2658  -0.2425  -0.2090

          Ground-State Mulliken Net Atomic Charges

     Atom                 Charge (a.u.)
  ----------------------------------------
      1 C                    -0.354620
      2 C                    -0.113060
      3 C                     0.192980
      4 C                    -0.188424
      5 C                    -0.186096
      6 C                     0.104979
      7 C                    -0.132964
      8 C                    -0.339500
      9 C                     0.127869
     10 C                    -0.344726
     11 C                    -0.441229
     12 C                    -0.271984
     13 H                     0.142982
     14 H                     0.142118
     15 H                     0.125175
     16 H                     0.123946
     17 H                     0.127993
     18 H                     0.135606
     19 H                     0.144880
     20 H                     0.141821
     21 H                     0.145282
     22 H                     0.148152
     23 H                     0.152448
     24 H                     0.144982
     25 H                     0.152494
     26 H                     0.118899
  ----------------------------------------
  Sum of atomic charges =     0.000000

                    Cartesian Multipole Moments
 -----------------------------------------------------------------
    Charge (ESU x 10^10)
                 0.0000
    Dipole Moment (Debye)
         X      -0.3604      Y       0.3024      Z       0.0035
       Tot       0.4704
    Quadrupole Moments (Debye-Ang)
        XX     -67.0253     XY      -0.2266     YY     -66.4626
        XZ      -0.0213     YZ       1.4284     ZZ     -76.2051

 Total job time:  28.70s(wall), 28.60s(cpu)
        *  Thank you very much for using Q-Chem.  Have a nice day.  *
