 Q-Chem 5.2, Q-Chem, Inc., Pleasanton, CA (2019)
 Q-Chem 5.2.1 for Intel X86 EM64T Linux

User input:
--------------------------------------------------------------
$molecule
0 1
C        -3.98989563230000    1.55440748020000    0.27877167640000
C        -3.69148632360000    0.26154520900000    0.22257591980000
C        -2.35546421500000   -0.31058505170000    0.13203137040000
C        -2.19731670990000   -1.69899793270000    0.12067203820000
C        -0.94662919250000   -2.27023006050000    0.04034328720000
C         0.21595387410000   -1.49568791660000   -0.06003286300000
C         1.48607139190000   -2.20614951030000   -0.18532656080000
C         2.54475942440000   -1.81373157970000   -0.88446681500000
C         0.05215873590000   -0.11047839500000   -0.02940703850000
S         1.39465013260000    1.09691174140000   -0.02688092370000
N         2.50809988260000    0.56544004480000    1.09434462060000
O         2.04498586850000    1.12655127860000   -1.30227211110000
O         0.86636858610000    2.32119799220000    0.49396827510000
C        -1.19646861800000    0.46339043440000    0.06859468080000
H        -5.01117665890000    1.88821480100000    0.34368630600000
H        -3.23920438890000    2.32525310570000    0.26396893860000
H        -4.49201485920000   -0.46799475940000    0.24454568930000
H        -3.06948629750000   -2.33406562990000    0.18269709950000
H        -0.85215382960000   -3.34674191760000    0.03586661040000
H         1.49442784170000   -3.17782484990000    0.29734476760000
H         2.56514988080000   -0.88475394770000   -1.42775418410000
H         3.42188960110000   -2.43677681040000   -0.95134393530000
H         2.92824737430000   -0.32413625890000    0.87504313230000
H         2.16281075440000    0.62512926010000    2.03685828510000
H        -1.23832538000000    1.53903521530000    0.10743370440000
$end

$rem
BASIS = 6-31G*
GUI = 2
METHOD = B3LYP
PRINT_ORBITALS false
MOLDEN_FORMAT false
--------------------------------------------------------------

             Standard Nuclear Orientation (Angstroms)
    I     Atom           X                Y                Z
 ----------------------------------------------------------------
    1      C       4.0309164752    -1.4291286467    -0.1408117556
    2      C       3.6816412102    -0.1502086490    -0.0629056607
    3      C       2.3223210902     0.3695227311    -0.0117731915
    4      C       2.1125248349     1.7457859847     0.1095321423
    5      C       0.8390260725     2.2674275451     0.1649316279
    6      C      -0.2983150989     1.4549046122     0.0763210506
    7      C      -1.5995457494     2.1181265391     0.1005731808
    8      C      -2.6902819240     1.7413259998    -0.5566370049
    9      C      -0.0816301934     0.0804365315    -0.0259401542
   10      S      -1.3749280110    -1.1794504426    -0.0380248726
   11      N      -2.4242359310    -0.7935530025     1.1986704359
   12      O      -2.1132647901    -1.1285978033    -1.2638758269
   13      O      -0.7658337288    -2.4196858525     0.3362242256
   14      C       1.1911764770    -0.4454196866    -0.0638671486
   15      H       5.0658701042    -1.7229865439    -0.1750855623
   16      H       3.3101129816    -2.2275169877    -0.1720819158
   17      H       4.4541604217     0.6085974682    -0.0315286495
   18      H       2.9628110585     2.4102293096     0.1675518262
   19      H       0.7047229780     3.3353623513     0.2613750917
   20      H      -1.6092942211     3.0440246841     0.6660924108
   21      H      -2.7151010927     0.8618437436    -1.1766945401
   22      H      -3.5923903381     2.3294771205    -0.5087420786
   23      H      -2.8916031944     0.0925306690     1.0873752169
   24      H      -2.0104571319    -0.9181776219     2.1066215370
   25      H       1.2754571118    -1.5176746151    -0.1225041324
 ----------------------------------------------------------------

    9    -990.9546188263      6.07e-06  Convergence criterion met
 Total energy in the final basis set =     -990.9546188263

                    Orbital Energies (a.u.)
 --------------------------------------------------------------

 Alpha MOs
 -- Occupied --
-89.1120 -19.1384 -19.1376 -14.3613 -10.2299 -10.2254 -10.2151 -10.2123
-10.2099 -10.2085 -10.2081 -10.2024 -10.1932 -10.1920  -8.1379  -6.1028
 -6.1022  -6.1009  -1.1288  -1.0126  -0.9156  -0.8921  -0.8286  -0.7882
 -0.7815  -0.7362  -0.6750  -0.6519  -0.6186  -0.5885  -0.5824  -0.5439
 -0.5307  -0.5169  -0.4936  -0.4824  -0.4794  -0.4538  -0.4473  -0.4442
 -0.4333  -0.4058  -0.3994  -0.3855  -0.3701  -0.3628  -0.3439  -0.3394
 -0.3220  -0.3124  -0.3049  -0.2990  -0.2843  -0.2713  -0.2320

          Ground-State Mulliken Net Atomic Charges

     Atom                 Charge (a.u.)
  ----------------------------------------
      1 C                    -0.346576
      2 C                    -0.115807
      3 C                     0.191861
      4 C                    -0.189734
      5 C                    -0.175961
      6 C                     0.154361
      7 C                    -0.162532
      8 C                    -0.398911
      9 C                    -0.210218
     10 S                     1.177372
     11 N                    -0.818849
     12 O                    -0.510088
     13 O                    -0.511684
     14 C                    -0.235126
     15 H                     0.152149
     16 H                     0.160405
     17 H                     0.131930
     18 H                     0.140035
     19 H                     0.139721
     20 H                     0.141592
     21 H                     0.237487
     22 H                     0.151454
     23 H                     0.356618
     24 H                     0.350442
     25 H                     0.190058
  ----------------------------------------
  Sum of atomic charges =     0.000000

                    Cartesian Multipole Moments
 -----------------------------------------------------------------
    Charge (ESU x 10^10)
                 0.0000
    Dipole Moment (Debye)
         X       1.9606      Y       4.6728      Z       2.6458
       Tot       5.7166
    Quadrupole Moments (Debye-Ang)
        XX     -80.6050     XY      -7.9648     YY     -89.6815
        XZ      -5.8212     YZ       0.5200     ZZ     -89.5016

 Total job time:  42.74s(wall), 42.60s(cpu)
        *  Thank you very much for using Q-Chem.  Have a nice day.  *
