 Q-Chem 5.4, Q-Chem, Inc., Pleasanton, CA (2021)
 Q-Chem 5.4.2 for Intel X86 EM64T Linux

User input:
--------------------------------------------------------------
$molecule
0 1
C           -3.31971007210000       -2.07405253250000        1.07264241020000
C           -3.13173430830000       -1.00194719280000        0.31468592790000
C           -1.89239521300000       -0.23502650030000        0.20323491940000
C           -1.99079726430000        1.11903957200000       -0.11730591150000
C           -0.85854109180000        1.90468442090000       -0.21475484000000
Cl          -1.01293507560000        3.57935994520000       -0.61126532230000
C            0.39775057760000        1.37408847230000        0.01445232360000
C            0.52697296080000        0.02206302370000        0.32161677790000
C            1.81910117490000       -0.57628705070000        0.63647753790000
C            3.01517391310000       -0.13854421650000        0.27698671600000
F            3.29776930220000        0.91225126330000       -0.48263808040000
F            4.14968578480000       -0.73942609410000        0.62635573660000
C           -0.61849670410000       -0.79134554080000        0.39363598560000
O           -0.47894647350000       -2.13423788850000        0.66046272050000
C            0.00893197330000       -2.92464242270000       -0.41612909040000
C           -0.99752904050000       -3.05899923110000       -1.55269884290000
H           -4.27607194740000       -2.56869097400000        1.10876964400000
H           -2.53493924640000       -2.48646318430000        1.68097704310000
H           -3.95803205210000       -0.59816681820000       -0.25770516040000
H           -2.96343095950000        1.55677959890000       -0.28114682320000
H            1.26455643360000        2.01171665210000       -0.03145222340000
H            1.79732445930000       -1.47312166700000        1.23912415710000
H            0.21065672760000       -3.90052983810000        0.03199290150000
H            0.94880438410000       -2.50835541060000       -0.80294398890000
H           -1.93445154990000       -3.46461418240000       -1.18024690200000
H           -0.59816097040000       -3.72310638520000       -2.31416524130000
H           -1.19423141240000       -2.08753839090000       -2.00162839600000
$end

$rem
BASIS = 6-31G*
GUI = 2
METHOD = B3LYP
PRINT_ORBITALS false
MOLDEN_FORMAT false
$end
--------------------------------------------------------------

             Standard Nuclear Orientation (Angstroms)
    I     Atom           X                Y                Z
 ----------------------------------------------------------------
    1      C       3.6893917231    -0.9870864757    -1.0083194087
    2      C       3.1867839522     0.0344282570    -0.3277785534
    3      C       1.7737707198     0.3990056204    -0.2439512303
    4      C       1.4588671351     1.7405773308    -0.0272823717
    5      C       0.1422800283     2.1540888532     0.0386325255
    6      Cl     -0.2160180028     3.8231574438     0.3058940775
    7      C      -0.8952638052     1.2537866744    -0.1204131395
    8      C      -0.6103529320    -0.0940785347    -0.3231603033
    9      C      -1.6616374498    -1.0762446558    -0.5617100977
   10      C      -2.9339145405    -0.9921561920    -0.2071927218
   11      F      -3.5202910123    -0.0192440512     0.4788580964
   12      F      -3.8341882216    -1.9319803806    -0.4837297431
   13      C       0.7272239333    -0.5280167197    -0.3619777379
   14      O       0.9995474124    -1.8671632769    -0.5249410836
   15      C       0.7735183603    -2.6812477069     0.6187337138
   16      C       1.7740252008    -2.4173492930     1.7377288058
   17      H       4.7504530619    -1.1721739606    -1.0304973168
   18      H       3.0655269502    -1.6627166315    -1.5653970137
   19      H       3.8528290034     0.7115509303     0.1931120162
   20      H       2.2540022928     2.4621499319     0.0802794380
   21      H      -1.9141186363     1.6024940704    -0.1012480589
   22      H      -1.3703306107    -1.9690840472    -1.0964508281
   23      H       0.8756852169    -3.7044375556     0.2492652976
   24      H      -0.2480265697    -2.5383073298     0.9959535374
   25      H       2.7895413450    -2.5499140048     1.3741063592
   26      H       1.5941166210    -3.1093395228     2.5557426615
   27      H       1.6684072260    -1.3998152717     2.1084511947
 ----------------------------------------------------------------

    9   -1198.9414982139      5.10e-06  Convergence criterion met
 Total energy in the final basis set =    -1198.9414982139

                    Orbital Energies (a.u.)
 --------------------------------------------------------------

 Alpha MOs
 -- Occupied --
******** -24.7488 -24.7400 -19.1734 -10.3633 -10.2526 -10.2496 -10.2436
-10.2175 -10.2090 -10.2077 -10.2023 -10.2019 -10.1951 -10.1818 -10.1788
 -9.4655  -7.2293  -7.2199  -7.2195  -1.2909  -1.2301  -1.0654  -0.9006
 -0.8523  -0.8239  -0.7808  -0.7697  -0.7403  -0.7211  -0.6614  -0.6433
 -0.6288  -0.6022  -0.5794  -0.5653  -0.5268  -0.5234  -0.5213  -0.5074
 -0.4856  -0.4749  -0.4613  -0.4480  -0.4461  -0.4431  -0.4331  -0.4300
 -0.4157  -0.4072  -0.3938  -0.3881  -0.3855  -0.3834  -0.3597  -0.3487
 -0.3334  -0.3172  -0.3122  -0.2856  -0.2696  -0.2312  -0.2269

          Ground-State Mulliken Net Atomic Charges

     Atom                 Charge (a.u.)
  ----------------------------------------
      1 C                    -0.336057
      2 C                    -0.128026
      3 C                     0.155711
      4 C                    -0.218197
      5 C                    -0.059412
      6 Cl                   -0.015448
      7 C                    -0.209297
      8 C                     0.166697
      9 C                    -0.315631
     10 C                     0.554685
     11 F                    -0.233357
     12 F                    -0.244413
     13 C                     0.211441
     14 O                    -0.533219
     15 C                    -0.042667
     16 C                    -0.460627
     17 H                     0.140677
     18 H                     0.170876
     19 H                     0.133590
     20 H                     0.151768
     21 H                     0.159085
     22 H                     0.184597
     23 H                     0.150831
     24 H                     0.142191
     25 H                     0.166529
     26 H                     0.147320
     27 H                     0.160353
  ----------------------------------------
  Sum of atomic charges =     0.000000

                    Cartesian Multipole Moments
 -----------------------------------------------------------------
    Charge (ESU x 10^10)
                 0.0000
    Dipole Moment (Debye)
         X       1.2221      Y      -2.0294      Z       0.6585
       Tot       2.4588
    Quadrupole Moments (Debye-Ang)
        XX     -95.3202     XY      -0.3029     YY     -98.2791
        XZ       1.5981     YZ      -1.6470     ZZ     -98.9453

 Total job time:  72.11s(wall), 68.74s(cpu)
        *  Thank you very much for using Q-Chem.  Have a nice day.  *
