 Q-Chem 5.4, Q-Chem, Inc., Pleasanton, CA (2021)
 Q-Chem 5.4.2 for Intel X86 EM64T Linux

User input:
--------------------------------------------------------------
$molecule
0 1
C           -4.04985794430000        1.45498790470000        0.04861123650000
C           -2.81646676260000        1.55990864170000       -0.42749763220000
C           -1.76739247780000        0.55167238570000       -0.30125149780000
C           -2.06331077600000       -0.79307456880000       -0.09060304190000
C           -1.04480577310000       -1.72217444900000        0.00862659720000
Cl          -1.43380730290000       -3.38431094030000        0.27944449510000
C            0.28074538120000       -1.35175975370000       -0.12824583720000
C            0.60384191940000       -0.01534773150000       -0.35339482170000
C            1.97440393790000        0.42371798790000       -0.58523667080000
C            3.08795524940000       -0.19190891150000       -0.22099691060000
F            3.20071058420000       -1.31981230750000        0.46895969400000
F            4.30401326860000        0.27530355990000       -0.49095035870000
C           -0.42387992470000        0.94018260040000       -0.41907160200000
O           -0.12129792840000        2.26726982510000       -0.62731164850000
C            0.40141743360000        2.96206978660000        0.49828322590000
C           -0.63102429890000        3.17073579370000        1.59988179250000
H           -4.76960439520000        2.24406638450000       -0.08457191730000
H           -4.38907232600000        0.59289233890000        0.59767591450000
H           -2.50844049480000        2.45967977320000       -0.94236359830000
H           -3.08975561810000       -1.11338230280000       -0.01800666360000
H            1.05218977110000       -2.10211367430000       -0.08339639800000
H            2.09387511490000        1.35303515620000       -1.12378769550000
H            0.72984727970000        3.92338703700000        0.09576582830000
H            1.27152831630000        2.42937400340000        0.90498173640000
H           -1.49662680720000        3.70306777490000        1.21442431810000
H           -0.18832216810000        3.75102972420000        2.40463071260000
H           -0.96165668500000        2.21329316140000        1.99751465410000
$end

$rem
BASIS = 6-31G*
GUI = 2
METHOD = B3LYP
PRINT_ORBITALS false
MOLDEN_FORMAT false
$end
--------------------------------------------------------------

             Standard Nuclear Orientation (Angstroms)
    I     Atom           X                Y                Z
 ----------------------------------------------------------------
    1      C       4.1245449471     0.8024527427     0.1582598700
    2      C       2.8981711513     1.0614482146     0.5917001561
    3      C       1.7289086273     0.2085897520     0.3955041261
    4      C       1.8493912732    -1.1579535151     0.1539917785
    5      C       0.7199502415    -1.9372868014    -0.0116226361
    6      Cl      0.8923037038    -3.6292476752    -0.3197215251
    7      C      -0.5481166724    -1.3940252672     0.0878770108
    8      C      -0.6972196195    -0.0324237508     0.3426124676
    9      C      -2.0044704709     0.5824744757     0.5374585046
   10      C      -3.1750222271     0.1333901808     0.1134355246
   11      F      -3.4104508953    -0.9504634552    -0.6150935349
   12      F      -4.3270660015     0.7541999445     0.3529137966
   13      C       0.4462705787     0.7727062749     0.4758778107
   14      O       0.3169106698     2.1227265200     0.7141877673
   15      C      -0.0612574376     2.9110490712    -0.4076315565
   16      C       1.0338379906     3.0061531050    -1.4634336504
   17      H       4.9379628576     1.4827863368     0.3424202807
   18      H       4.3666498053    -0.0831621971    -0.4046065421
   19      H       2.6934086816     1.9810310286     1.1227321823
   20      H       2.8254569828    -1.6126515004     0.1092506872
   21      H      -1.4110985913    -2.0312812409    -0.0087457438
   22      H      -2.0195379069     1.5051065249     1.1000098727
   23      H      -0.2733624349     3.8972745560     0.0123542030
   24      H      -0.9778951319     2.5121529920    -0.8625147058
   25      H       1.9468274095     3.4058524892    -1.0299440560
   26      H       0.7064151947     3.6618748343    -2.2654126857
   27      H       1.2484465881     2.0233391961    -1.8783384971
 ----------------------------------------------------------------

    9   -1198.9444619460      4.92e-06  Convergence criterion met
 Total energy in the final basis set =    -1198.9444619460

                    Orbital Energies (a.u.)
 --------------------------------------------------------------

 Alpha MOs
 -- Occupied --
******** -24.7492 -24.7403 -19.1750 -10.3637 -10.2523 -10.2501 -10.2451
-10.2179 -10.2082 -10.2081 -10.2028 -10.2017 -10.1949 -10.1867 -10.1813
 -9.4655  -7.2292  -7.2198  -7.2195  -1.2913  -1.2305  -1.0661  -0.9007
 -0.8526  -0.8247  -0.7820  -0.7713  -0.7383  -0.7238  -0.6649  -0.6427
 -0.6327  -0.5966  -0.5732  -0.5723  -0.5363  -0.5255  -0.5204  -0.4996
 -0.4874  -0.4793  -0.4640  -0.4479  -0.4466  -0.4413  -0.4341  -0.4270
 -0.4224  -0.4080  -0.3978  -0.3898  -0.3885  -0.3758  -0.3632  -0.3477
 -0.3348  -0.3199  -0.3125  -0.2859  -0.2734  -0.2313  -0.2277

          Ground-State Mulliken Net Atomic Charges

     Atom                 Charge (a.u.)
  ----------------------------------------
      1 C                    -0.348173
      2 C                    -0.107990
      3 C                     0.140688
      4 C                    -0.210662
      5 C                    -0.059989
      6 Cl                   -0.016090
      7 C                    -0.211528
      8 C                     0.170429
      9 C                    -0.315915
     10 C                     0.554639
     11 F                    -0.233179
     12 F                    -0.244140
     13 C                     0.201219
     14 O                    -0.529619
     15 C                    -0.041697
     16 C                    -0.462708
     17 H                     0.148166
     18 H                     0.145985
     19 H                     0.152291
     20 H                     0.152053
     21 H                     0.159479
     22 H                     0.184866
     23 H                     0.152021
     24 H                     0.142349
     25 H                     0.161593
     26 H                     0.150102
     27 H                     0.165810
  ----------------------------------------
  Sum of atomic charges =     0.000000

                    Cartesian Multipole Moments
 -----------------------------------------------------------------
    Charge (ESU x 10^10)
                 0.0000
    Dipole Moment (Debye)
         X       0.5600      Y       2.3470      Z      -0.6552
       Tot       2.5003
    Quadrupole Moments (Debye-Ang)
        XX     -95.5952     XY       1.1017     YY     -97.0434
        XZ      -0.9289     YZ      -2.2293     ZZ     -99.6931

 Total job time:  69.99s(wall), 68.60s(cpu)
        *  Thank you very much for using Q-Chem.  Have a nice day.  *
