 Q-Chem 5.2, Q-Chem, Inc., Pleasanton, CA (2019)
 Q-Chem 5.2.1 for Intel X86 EM64T Linux

User input:
--------------------------------------------------------------
$molecule
0 1
C         3.51777888780000    1.27265752110000    0.54270779730000
C         2.37105686770000    1.54168782400000   -0.06629399620000
C         1.19083806240000    0.69829237170000   -0.06083977890000
C        -0.10607393650000    1.18165266610000   -0.06845366130000
N        -0.93899616670000    0.13098145110000    0.05176148940000
C        -2.39441434680000    0.12780386240000    0.01958601300000
C        -2.83874755580000    0.06964831360000   -1.44669684820000
C        -2.88267435680000   -1.11117231750000    0.76947225540000
C        -2.93152931280000    1.39226579690000    0.69218337550000
N        -0.26592074160000   -1.01030652040000    0.10646093580000
C         1.02665096840000   -0.71194559190000    0.03844575840000
C         1.97817222650000   -1.80535736660000    0.00037124380000
C         3.16999417660000   -1.77854341340000   -0.58055705210000
H         4.34209828510000    1.96527203300000    0.52140503620000
H         3.67117632720000    0.35562374870000    1.08544319090000
H         2.24044443510000    2.49186338810000   -0.57251096680000
H        -0.45197038320000    2.19345725850000   -0.12688853310000
H        -2.45572665100000   -0.83446123440000   -1.91369751420000
H        -2.45884014240000    0.92974376170000   -1.99452596410000
H        -3.92347131830000    0.06638117340000   -1.51158641590000
H        -2.44198994890000   -2.00289176520000    0.33470641070000
H        -3.96544807920000   -1.17873874340000    0.71121864630000
H        -2.58707972510000   -1.05923066530000    1.81430163170000
H        -2.72401597610000    2.27846540070000    0.09774883780000
H        -2.48755261290000    1.51750305980000    1.67735296290000
H        -4.00911461580000    1.31013736600000    0.80751203960000
H         1.60206753210000   -2.72076998290000    0.43888793150000
H         3.55185116630000   -0.89477977000000   -1.06249000680000
H         3.80426674160000   -2.64863012970000   -0.59809119620000
$end

$rem
BASIS = 6-31G*
GUI = 2
METHOD = B3LYP
PRINT_ORBITALS false
MOLDEN_FORMAT false
--------------------------------------------------------------

             Standard Nuclear Orientation (Angstroms)
    I     Atom           X                Y                Z
 ----------------------------------------------------------------
    1      C       3.4873961588     1.4871922525     0.4446043203
    2      C       2.3327741136     1.6440919103    -0.1882165943
    3      C       1.1972657845     0.7444127048    -0.1143232413
    4      C      -0.1226012343     1.1578097122    -0.1665711605
    5      N      -0.9014845897     0.0795291187     0.0402447154
    6      C      -2.3545658657    -0.0014722329     0.0044533250
    7      C      -2.7848820782    -0.2065611796    -1.4527927004
    8      C      -2.7840945626    -1.1959668027     0.8556154773
    9      C      -2.9604806686     1.2860405391     0.5656322591
   10      N      -0.1712776175    -1.0167518881     0.1936282968
   11      C       1.1047786363    -0.6589212632     0.1040480836
   12      C       2.1112695726    -1.7010561689     0.1616893501
   13      C       3.3042649401    -1.6621085381    -0.4161353369
   14      H       4.2753118537     2.2171239685     0.3667603353
   15      H       3.6836634871     0.6286068037     1.0637598618
   16      H       2.1573046961     2.5399269249    -0.7737410956
   17      H      -0.5194118062     2.1418151452    -0.3117682580
   18      H      -2.3527660200    -1.1260256548    -1.8401807508
   19      H      -2.4456063888     0.6224583694    -2.0707159616
   20      H      -3.8675266819    -0.2712936195    -1.5201525138
   21      H      -2.2952559444    -2.0973940318     0.4994506046
   22      H      -3.8615476295    -1.3240179848     0.8003396024
   23      H      -2.4989974955    -1.0404616570     1.8930548052
   24      H      -2.7943728666     2.1281878687    -0.1014209740
   25      H      -2.5305266816     1.5170802226     1.5378045852
   26      H      -4.0332435029     1.1584806570     0.6845618307
   27      H       1.7794018984    -2.5941894012     0.6754098586
   28      H       3.6438065959    -0.8038513454    -0.9704081634
   29      H       3.9823531580    -2.4966524796    -0.3578875452
 ----------------------------------------------------------------

    9    -538.2525738378      4.32e-06  Convergence criterion met
 Total energy in the final basis set =     -538.2525738378

                    Orbital Energies (a.u.)
 --------------------------------------------------------------

 Alpha MOs
 -- Occupied --
-14.4041 -14.3347 -10.2420 -10.2105 -10.1991 -10.1872 -10.1848 -10.1801
-10.1797 -10.1784 -10.1727 -10.1674 -10.1672  -1.0548  -0.8683  -0.8029
 -0.7958  -0.7524  -0.7311  -0.7025  -0.6949  -0.6276  -0.6215  -0.5741
 -0.5450  -0.5221  -0.5048  -0.4745  -0.4676  -0.4608  -0.4430  -0.4316
 -0.4243  -0.4113  -0.4039  -0.3918  -0.3905  -0.3778  -0.3744  -0.3571
 -0.3470  -0.3465  -0.3418  -0.2933  -0.2905  -0.2717  -0.2266  -0.2033

          Ground-State Mulliken Net Atomic Charges

     Atom                 Charge (a.u.)
  ----------------------------------------
      1 C                    -0.345409
      2 C                    -0.133662
      3 C                    -0.018431
      4 C                     0.035485
      5 N                    -0.223816
      6 C                     0.174603
      7 C                    -0.430103
      8 C                    -0.443510
      9 C                    -0.460811
     10 N                    -0.372333
     11 C                     0.269321
     12 C                    -0.101411
     13 C                    -0.349551
     14 H                     0.134958
     15 H                     0.153471
     16 H                     0.122637
     17 H                     0.154549
     18 H                     0.168261
     19 H                     0.146232
     20 H                     0.146831
     21 H                     0.185813
     22 H                     0.139121
     23 H                     0.152340
     24 H                     0.148429
     25 H                     0.162719
     26 H                     0.157174
     27 H                     0.136019
     28 H                     0.153877
     29 H                     0.137197
  ----------------------------------------
  Sum of atomic charges =     0.000000

                    Cartesian Multipole Moments
 -----------------------------------------------------------------
    Charge (ESU x 10^10)
                 0.0000
    Dipole Moment (Debye)
         X      -2.0028      Y       1.5485      Z      -0.2931
       Tot       2.5486
    Quadrupole Moments (Debye-Ang)
        XX     -71.4472     XY      -1.6252     YY     -76.8035
        XZ       0.0643     YZ      -1.7544     ZZ     -80.3141

 Total job time:  44.86s(wall), 44.72s(cpu)
        *  Thank you very much for using Q-Chem.  Have a nice day.  *
