 Q-Chem 5.2, Q-Chem, Inc., Pleasanton, CA (2019)
 Q-Chem 5.2.1 for Intel X86 EM64T Linux

User input:
--------------------------------------------------------------
$molecule
0 1
C         2.04889950930000    2.80487637240000   -0.10416137710000
C         2.18821036390000    1.48587324960000   -0.03697967650000
C         1.14361985690000    0.46967506470000   -0.00121333700000
C         1.54683453110000   -0.86285695480000   -0.08964850050000
C         0.61889634150000   -1.88106650870000   -0.04707338930000
F         1.04197727130000   -3.16372258670000   -0.12183820430000
C        -0.72932279450000   -1.62424897980000    0.07561504630000
C        -1.16718182360000   -0.30426830350000    0.13748473760000
C        -2.61174356290000   -0.06523384920000    0.24403716710000
C        -3.29980757570000    0.86054801750000   -0.41420388990000
C        -0.23295875280000    0.74433174020000    0.11873049980000
O        -0.63977860190000    2.02928080420000    0.26218792100000
H         2.91465312820000    3.44573207670000   -0.13036875720000
H         1.09096498580000    3.28789725850000   -0.13722279730000
H         3.18902694500000    1.07065269500000   -0.01797794350000
H         2.59342700070000   -1.10593643150000   -0.18631577710000
H        -1.43727658040000   -2.43745471670000    0.10291373290000
H        -3.13583512600000   -0.75212037200000    0.89742532490000
H        -2.84777332590000    1.52035543440000   -1.13804240870000
H        -4.36572087010000    0.95564664680000   -0.29368299140000
H        -1.59283460060000    2.04075551890000    0.43708021900000
$end

$rem
BASIS = 6-31G*
GUI = 2
METHOD = B3LYP
PRINT_ORBITALS false
MOLDEN_FORMAT false
--------------------------------------------------------------

             Standard Nuclear Orientation (Angstroms)
    I     Atom           X                Y                Z
 ----------------------------------------------------------------
    1      C       3.0704537719    -1.5463861799     0.0950849299
    2      C       2.6146047990    -0.3012588343     0.0205883505
    3      C       1.2291758931     0.1512467952    -0.0099519695
    4      C       1.0053434778     1.5259364197     0.0686096043
    5      C      -0.2762700737     2.0315254961     0.0301517089
    6      F      -0.4604016821     3.3700595038     0.0950834114
    7      C      -1.3746300134     1.2066189767    -0.0786472403
    8      C      -1.1872577350    -0.1718269659    -0.1303752466
    9      C      -2.3798479236    -1.0230286154    -0.2222115319
   10      C      -2.5859755469    -2.1516821796     0.4466965144
   11      C       0.1132202876    -0.7021352059    -0.1156578291
   12      O       0.3125181970    -2.0361382804    -0.2494212730
   13      H       4.1300479297    -1.7406362980     0.1160444505
   14      H       2.4230995153    -2.4013782765     0.1393767612
   15      H       3.3303941684     0.5118394114    -0.0097402714
   16      H       1.8387444782     2.2055603316     0.1542956752
   17      H      -2.3683921769     1.6250595151    -0.1029706829
   18      H      -3.1569691661    -0.6422624769    -0.8737488437
   19      H      -1.8850184523    -2.5392619225     1.1692365383
   20      H      -3.5020069885    -2.7071279551     0.3366666276
   21      H      -0.5393313661    -2.4672798604    -0.4152645168
 ----------------------------------------------------------------

    9    -561.4917436096      2.42e-06  Convergence criterion met
 Total energy in the final basis set =     -561.4917436096

                    Orbital Energies (a.u.)
 --------------------------------------------------------------

 Alpha MOs
 -- Occupied --
-24.6970 -19.1806 -10.2625 -10.2556 -10.2133 -10.2058 -10.2021 -10.1997
-10.1956 -10.1931 -10.1865 -10.1706  -1.2081  -1.0692  -0.8705  -0.8175
 -0.7814  -0.7392  -0.7284  -0.6464  -0.6324  -0.5960  -0.5679  -0.5440
 -0.5130  -0.5058  -0.4837  -0.4541  -0.4528  -0.4478  -0.4389  -0.4172
 -0.4115  -0.3990  -0.3859  -0.3775  -0.3584  -0.3369  -0.3271  -0.3171
 -0.2831  -0.2318  -0.2107

          Ground-State Mulliken Net Atomic Charges

     Atom                 Charge (a.u.)
  ----------------------------------------
      1 C                    -0.351921
      2 C                    -0.117226
      3 C                     0.171851
      4 C                    -0.294538
      5 C                     0.390044
      6 F                    -0.305821
      7 C                    -0.271880
      8 C                     0.128997
      9 C                    -0.152768
     10 C                    -0.369981
     11 C                     0.215915
     12 O                    -0.651376
     13 H                     0.135153
     14 H                     0.175690
     15 H                     0.125330
     16 H                     0.145472
     17 H                     0.143576
     18 H                     0.152056
     19 H                     0.168033
     20 H                     0.155720
     21 H                     0.407676
  ----------------------------------------
  Sum of atomic charges =     0.000000

                    Cartesian Multipole Moments
 -----------------------------------------------------------------
    Charge (ESU x 10^10)
                 0.0000
    Dipole Moment (Debye)
         X      -1.4954      Y      -1.5957      Z      -0.2200
       Tot       2.1979
    Quadrupole Moments (Debye-Ang)
        XX     -60.5598     XY       5.4234     YY     -68.6741
        XZ       1.6024     YZ      -0.6105     ZZ     -70.9881

 Total job time:  28.91s(wall), 28.80s(cpu)
        *  Thank you very much for using Q-Chem.  Have a nice day.  *
