 Q-Chem 5.4, Q-Chem, Inc., Pleasanton, CA (2021)
 Q-Chem 5.4.2 for Intel X86 EM64T Linux

User input:
--------------------------------------------------------------
$molecule
0 1
C           -4.48352304290000        0.72078550290000       -0.42015997940000
C           -3.66895115520000       -0.07772566800000        0.25517862400000
C           -2.21078308330000       -0.13276693300000        0.13919873790000
C           -1.61943942050000       -1.39675364040000        0.16296452060000
C           -0.25857498900000       -1.59485378550000        0.02995799330000
C            0.29888750380000       -2.98677185840000        0.05819605420000
C            0.56856510870000       -0.46770665550000       -0.10667554610000
C            2.00634149240000       -0.64078493280000       -0.26184338490000
C            2.95870287980000        0.25287727850000       -0.04463944280000
F            2.83246717780000        1.50333167150000        0.38762658520000
F            4.25524669700000       -0.00746170460000       -0.22677081210000
C           -0.01598662470000        0.79654300130000       -0.09544191410000
C           -1.38346171280000        0.99066324520000        0.02328277790000
C           -1.90556662620000        2.39529323030000        0.05899694180000
H           -5.55172482420000        0.66867346670000       -0.29158870340000
H           -4.12729778020000        1.43103296930000       -1.14515770350000
H           -4.09221017750000       -0.81490851840000        0.92802961570000
H           -2.26292517460000       -2.25909662520000        0.27355287000000
H           -0.49369198130000       -3.70669610490000        0.24543621350000
H            1.04865411390000       -3.08976798040000        0.84116080870000
H            0.76415438170000       -3.23694812440000       -0.89526265400000
H            2.35981936050000       -1.60788629240000       -0.58507695230000
H            0.61176861630000        1.66811643360000       -0.19442980220000
H           -1.15909619920000        3.05917908300000        0.48990224130000
H           -2.81857004210000        2.45905657200000        0.64571033160000
H           -2.12082448640000        2.74924890920000       -0.94922048490000
$end

$rem
BASIS = 6-31G*
GUI = 2
METHOD = B3LYP
PRINT_ORBITALS false
MOLDEN_FORMAT false
$end
--------------------------------------------------------------

             Standard Nuclear Orientation (Angstroms)
    I     Atom           X                Y                Z
 ----------------------------------------------------------------
    1      C       4.4023633552    -0.4393675018    -0.4251451631
    2      C       3.5361750882     0.3028193813     0.2502111845
    3      C       2.0774243521     0.2568207427     0.1376704545
    4      C       1.4003322731     1.4770555280     0.1597594058
    5      C       0.0287434276     1.5804427219     0.0295997660
    6      C      -0.6233652293     2.9306529294     0.0557614880
    7      C      -0.7189624888     0.3985585425    -0.1022174065
    8      C      -2.1656037282     0.4716187942    -0.2542877909
    9      C      -3.0535373567    -0.4850440354    -0.0325401541
   10      F      -2.8403398361    -1.7226654065     0.4025066472
   11      F      -4.3653651957    -0.3152584040    -0.2121359558
   12      C      -0.0485483703    -0.8223148770    -0.0892898550
   13      C       1.3293282619    -0.9213132367     0.0265619868
   14      C       1.9471862882    -2.2864758140     0.0644702197
   15      H       5.4647134124    -0.3133428408    -0.2993221773
   16      H       4.0943447599    -1.1744085415    -1.1475085178
   17      H       3.9090903770     1.0692188687     0.9201971731
   18      H       1.9830338836     2.3820280106     0.2666367231
   19      H       0.1180754720     3.7040349909     0.2392769141
   20      H      -1.3766684166     2.9837393310     0.8403047434
   21      H      -1.1069529244     3.1456183254    -0.8971696531
   22      H      -2.5857022437     1.4111727571    -0.5790448850
   23      H      -0.6148937199    -1.7353799058    -0.1845825131
   24      H       1.2492843030    -2.9991422057     0.4988448669
   25      H       2.8637457404    -2.2855496008     0.6490996028
   26      H       2.1840594044    -2.6273939444    -0.9433933146
 ----------------------------------------------------------------

    9    -664.1436889705      6.67e-06  Convergence criterion met
 Total energy in the final basis set =     -664.1436889705

                    Orbital Energies (a.u.)
 --------------------------------------------------------------

 Alpha MOs
 -- Occupied --
-24.7412 -24.7312 -10.3542 -10.1995 -10.1983 -10.1919 -10.1901 -10.1888
-10.1884 -10.1830 -10.1805 -10.1789 -10.1786 -10.1742  -1.2818  -1.2209
 -0.8711  -0.8181  -0.7854  -0.7734  -0.7242  -0.7201  -0.6577  -0.6441
 -0.6096  -0.5966  -0.5704  -0.5405  -0.5205  -0.5159  -0.4918  -0.4718
 -0.4556  -0.4388  -0.4342  -0.4302  -0.4259  -0.4251  -0.4148  -0.4087
 -0.4020  -0.3930  -0.3770  -0.3691  -0.3523  -0.3340  -0.3303  -0.3036
 -0.2636  -0.2369  -0.2089

          Ground-State Mulliken Net Atomic Charges

     Atom                 Charge (a.u.)
  ----------------------------------------
      1 C                    -0.336883
      2 C                    -0.139908
      3 C                     0.116504
      4 C                    -0.264381
      5 C                     0.132201
      6 C                    -0.538714
      7 C                     0.149379
      8 C                    -0.312703
      9 C                     0.550479
     10 F                    -0.235309
     11 F                    -0.251334
     12 C                    -0.266098
     13 C                     0.131332
     14 C                    -0.536360
     15 H                     0.141766
     16 H                     0.147849
     17 H                     0.133613
     18 H                     0.118436
     19 H                     0.159498
     20 H                     0.165524
     21 H                     0.162384
     22 H                     0.160458
     23 H                     0.128064
     24 H                     0.155222
     25 H                     0.168089
     26 H                     0.160892
  ----------------------------------------
  Sum of atomic charges =     0.000000

                    Cartesian Multipole Moments
 -----------------------------------------------------------------
    Charge (ESU x 10^10)
                 0.0000
    Dipole Moment (Debye)
         X       0.8336      Y       0.8337      Z      -0.1518
       Tot       1.1887
    Quadrupole Moments (Debye-Ang)
        XX     -80.3393     XY      -2.3793     YY     -75.5049
        XZ       0.7602     YZ       1.4623     ZZ     -81.9062

 Total job time:  72.60s(wall), 62.76s(cpu)
        *  Thank you very much for using Q-Chem.  Have a nice day.  *
