 Q-Chem 5.4, Q-Chem, Inc., Pleasanton, CA (2021)
 Q-Chem 5.4.2 for Intel X86 EM64T Linux

User input:
--------------------------------------------------------------
$molecule
0 1
C           -4.32147572700000       -0.76135998680000        0.75506106560000
C           -3.67022807320000        0.16074907660000        0.05878285820000
C           -2.21832837900000        0.21596508410000       -0.10023707680000
C           -1.46775496970000       -0.95503293350000       -0.12371032440000
C           -0.08862954760000       -0.96445753900000       -0.26849384610000
C            0.63065463420000       -2.27666168250000       -0.33084580690000
C            0.56872382910000        0.26347039910000       -0.39257053610000
C            2.01891630270000        0.40228802730000       -0.54402907630000
C            2.95239758720000       -0.19633126410000        0.17377723790000
F            2.77877652070000       -1.03887057540000        1.18529889080000
F            4.26035540270000       -0.00292152370000       -0.00732699570000
C           -0.18334505750000        1.43828849300000       -0.41054657310000
C           -1.55708201190000        1.44338980010000       -0.26086126220000
C           -2.30639368280000        2.74201647460000       -0.25568407420000
H           -5.39522764890000       -0.75504484870000        0.83443037340000
H           -3.81036221430000       -1.54532392990000        1.28832260720000
H           -4.22946292210000        0.94876577410000       -0.42774026680000
H           -1.98381083550000       -1.90094736990000       -0.04895686350000
H           -0.03465626610000       -3.05188096070000       -0.70413018850000
H            0.96985092420000       -2.57402275430000        0.66088953110000
H            1.50070645310000       -2.21868546210000       -0.98162370220000
H            2.37053635540000        1.11288938330000       -1.27855557030000
H            0.33630325070000        2.37936021210000       -0.52694688740000
H           -1.61616595830000        3.58080761960000       -0.29850217460000
H           -2.91007357830000        2.83447836160000        0.64573719400000
H           -2.97284818700000        2.80470474580000       -1.11609336220000
$end

$rem
BASIS = 6-31G*
GUI = 2
METHOD = B3LYP
PRINT_ORBITALS false
MOLDEN_FORMAT false
$end
--------------------------------------------------------------

             Standard Nuclear Orientation (Angstroms)
    I     Atom           X                Y                Z
 ----------------------------------------------------------------
    1      C       4.0287380145    -1.5124596535    -0.5689231642
    2      C       3.5305060183    -0.4035181616    -0.0386160655
    3      C       2.1051046480    -0.1050740108     0.0859266643
    4      C       1.1858402317    -1.1304215722     0.2828101437
    5      C      -0.1775489208    -0.9082983810     0.4047499977
    6      C      -1.0869877168    -2.0699320890     0.6629464737
    7      C      -0.6400556813     0.4086972955     0.3215310543
    8      C      -2.0511521394     0.7872395139     0.4253617264
    9      C      -3.0703825181     0.2297409114    -0.2034013552
   10      F      -3.0347143826    -0.7797129499    -1.0653314603
   11      F      -4.3323757421     0.6447930002    -0.0766552136
   12      C       0.2816007550     1.4441539406     0.1649831336
   13      C       1.6389687317     1.2178451060     0.0388030130
   14      C       2.5764891276     2.3708138914    -0.1603062793
   15      H       5.0903522228    -1.6810790906    -0.6307723021
   16      H       3.4003575137    -2.2851323481    -0.9791904089
   17      H       4.2066870465     0.3583912255     0.3256530465
   18      H       1.5518550468    -2.1430882971     0.3676341791
   19      H      -0.5439461587    -2.8671773675     1.1653910825
   20      H      -1.4753503966    -2.4669275288    -0.2743825830
   21      H      -1.9329024186    -1.7782505882     1.2819888778
   22      H      -2.2849992955     1.6506917720     1.0318976482
   23      H      -0.0883630966     2.4592780998     0.1219823463
   24      H       2.0218192794     3.3001787994    -0.2624851110
   25      H       3.1799131169     2.2261600944    -1.0550094075
   26      H       3.2516649592     2.4685140322     0.6899806413
 ----------------------------------------------------------------

    9    -664.1441341243      6.51e-06  Convergence criterion met
 Total energy in the final basis set =     -664.1441341243

                    Orbital Energies (a.u.)
 --------------------------------------------------------------

 Alpha MOs
 -- Occupied --
-24.7388 -24.7308 -10.3532 -10.1987 -10.1975 -10.1914 -10.1910 -10.1888
-10.1883 -10.1820 -10.1809 -10.1794 -10.1793 -10.1749  -1.2806  -1.2200
 -0.8714  -0.8181  -0.7827  -0.7766  -0.7255  -0.7166  -0.6567  -0.6437
 -0.6150  -0.5855  -0.5706  -0.5505  -0.5180  -0.5117  -0.4916  -0.4691
 -0.4543  -0.4408  -0.4384  -0.4328  -0.4302  -0.4206  -0.4093  -0.4072
 -0.4008  -0.3938  -0.3733  -0.3724  -0.3481  -0.3380  -0.3316  -0.2984
 -0.2625  -0.2372  -0.2130

          Ground-State Mulliken Net Atomic Charges

     Atom                 Charge (a.u.)
  ----------------------------------------
      1 C                    -0.338418
      2 C                    -0.130160
      3 C                     0.122025
      4 C                    -0.258958
      5 C                     0.143418
      6 C                    -0.536898
      7 C                     0.129269
      8 C                    -0.345031
      9 C                     0.565245
     10 F                    -0.234518
     11 F                    -0.250262
     12 C                    -0.251423
     13 C                     0.127785
     14 C                    -0.535996
     15 H                     0.141829
     16 H                     0.144787
     17 H                     0.131157
     18 H                     0.122315
     19 H                     0.153906
     20 H                     0.171669
     21 H                     0.155609
     22 H                     0.167337
     23 H                     0.119183
     24 H                     0.156303
     25 H                     0.167463
     26 H                     0.162364
  ----------------------------------------
  Sum of atomic charges =     0.000000

                    Cartesian Multipole Moments
 -----------------------------------------------------------------
    Charge (ESU x 10^10)
                 0.0000
    Dipole Moment (Debye)
         X       1.0763      Y       0.4993      Z       0.4447
       Tot       1.2671
    Quadrupole Moments (Debye-Ang)
        XX     -80.3902     XY       0.2295     YY     -74.6580
        XZ      -1.6550     YZ       0.7892     ZZ     -82.5725

 Total job time:  67.19s(wall), 62.43s(cpu)
        *  Thank you very much for using Q-Chem.  Have a nice day.  *
