 Q-Chem 5.2, Q-Chem, Inc., Pleasanton, CA (2019)
 Q-Chem 5.2.1 for Intel X86 EM64T Linux

User input:
--------------------------------------------------------------
$molecule
0 1
C         2.77509760340000   -0.61795052290000   -2.51003165790000
O         1.89293058090000   -1.39852089710000   -1.71525108690000
C         2.46592888100000   -2.28961177700000   -0.89469234320000
C         1.45600986630000   -3.06742513720000   -0.12468342120000
C         0.33966536580000   -2.47973764690000    0.48589189880000
N         0.15550437990000   -1.09058747960000    0.50197839710000
C         1.23882405420000   -0.24577808400000    0.72174546970000
C         1.29932962880000    1.00282783850000    0.10434331100000
C         2.39878135360000    1.82031312220000    0.30945394050000
C         2.42604413280000    3.13476381190000   -0.41496253810000
F         1.33034331930000    3.87652855680000   -0.16997510740000
F         3.47967991990000    3.89899165420000   -0.10511735380000
F         2.46184536660000    2.96639944520000   -1.75451082930000
C         3.45246446380000    1.42396860390000    1.12068154210000
C         3.38476096680000    0.18525031560000    1.73820842750000
C         2.29531355900000   -0.64050567180000    1.54781128630000
C        -1.12315670770000   -0.57186023070000    0.27017353100000
C        -1.57498581760000    0.55389025310000    0.95964763600000
C        -2.83871432140000    1.05592132690000    0.73529330690000
C        -3.69822484430000    0.44709735910000   -0.18305014030000
C        -5.04114985350000    0.92070189300000   -0.46540141130000
C        -5.69133134530000    1.93628746280000    0.08519685550000
F        -5.26653022980000    2.76294369160000    1.03321318190000
F        -6.93258092310000    2.27569940580000   -0.25859481030000
C        -3.23764766830000   -0.68138391670000   -0.86792380740000
C        -1.97463245410000   -1.18477164810000   -0.64923814780000
C        -0.58673139560000   -3.30195594360000    1.12719147530000
C        -0.40376826850000   -4.66986524160000    1.17364797870000
C         0.72197569410000   -5.24526475910000    0.60398900290000
C         1.64729495900000   -4.44227678180000   -0.03501188180000
O         3.65472584070000   -2.47066873470000   -0.82851007810000
H         2.19209094660000    0.21440318440000   -2.89519783340000
H         3.17034855250000   -1.21908747190000   -3.33104930120000
H         3.60736561050000   -0.25564179910000   -1.90386533870000
H         0.50247420530000    1.32438330850000   -0.54879244290000
H         4.30422415380000    2.06906686240000    1.26312091700000
H         4.19210548000000   -0.13834562030000    2.37589005610000
H         2.25641035900000   -1.60109621340000    2.03903433310000
H        -0.92909181330000    1.03143851690000    1.68123764780000
H        -3.15634303940000    1.92512527710000    1.28659108390000
H        -5.59374741530000    0.38004873040000   -1.22034118960000
H        -3.88159815990000   -1.16377485230000   -1.58829476340000
H        -1.63143411860000   -2.05093884080000   -1.19464306140000
H        -1.44783874560000   -2.85071975520000    1.59754154260000
H        -1.13348883770000   -5.28782649020000    1.67462892300000
H         0.87536576090000   -6.31158676340000    0.65763096460000
H         2.52853021430000   -4.86719790850000   -0.49105854400000
$end

$rem
BASIS = 6-31G*
GUI = 2
METHOD = B3LYP
PRINT_ORBITALS false
MOLDEN_FORMAT false
--------------------------------------------------------------

             Standard Nuclear Orientation (Angstroms)
    I     Atom           X                Y                Z
 ----------------------------------------------------------------
    1      C       2.8650062887    -0.5068061892     2.3879040259
    2      O       2.2426922764     0.5603467977     1.6856970100
    3      C       3.0362808441     1.2865806647     0.8866424339
    4      C       2.2925672916     2.3886960719     0.2157657234
    5      C       1.0292670332     2.2166483071    -0.3663647390
    6      N       0.4226419418     0.9561103230    -0.4498046618
    7      C       1.1823238175    -0.1636010933    -0.7733966729
    8      C       0.8728630199    -1.4098997354    -0.2304078984
    9      C       1.6568393601    -2.5096579008    -0.5387254785
   10      C       1.2989264130    -3.8156306164     0.1090682369
   11      F       0.0195986504    -4.1655703365    -0.1182129077
   12      F       2.0524155973    -4.8435005969    -0.2982816833
   13      F       1.4298160561    -3.7596535245     1.4521067245
   14      C       2.7538601608    -2.4014343976    -1.3814949201
   15      C       3.0534098364    -1.1622964597    -1.9247751223
   16      C       2.2810146681    -0.0567474418    -1.6311993237
   17      C      -0.9454006571     0.8410817025    -0.1795945662
   18      C      -1.7470055822    -0.0405158807    -0.9055790586
   19      C      -3.0959281370    -0.1437768686    -0.6426629028
   20      C      -3.6929505597     0.6347557772     0.3524405069
   21      C      -5.1063583475     0.5788138356     0.6789676876
   22      C      -6.0575887625    -0.1468470069     0.1081038573
   23      F      -5.9421501083    -0.9963357044    -0.9055994194
   24      F      -7.3307070514    -0.1109705356     0.4979453533
   25      C      -2.8823403892     1.5165727531     1.0735252711
   26      C      -1.5334855999     1.6209479428     0.8163742760
   27      C       0.3829716926     3.3262980916    -0.9108817013
   28      C       0.9797830686     4.5713792633    -0.8909162962
   29      C       2.2468364825     4.7317088523    -0.3507630845
   30      C       2.8979998077     3.6407992075     0.1925876632
   31      O       4.2196689943     1.0973301831     0.7675766255
   32      H       2.0656345186    -1.1440614676     2.7566490897
   33      H       3.4544256451    -0.1147737456     3.2188999948
   34      H       3.5230540894    -1.0646414398     1.7191976789
   35      H       0.0377826185    -1.5151945765     0.4452521632
   36      H       3.3581088451    -3.2657525773    -1.6045933736
   37      H       3.8996033528    -1.0593619989    -2.5854704997
   38      H       2.5258149659     0.9008410578    -2.0655319252
   39      H      -1.3056302267    -0.6423917779    -1.6858717947
   40      H      -3.6858142042    -0.8327622422    -1.2237535421
   41      H      -5.4384027465     1.2095692733     1.4910625535
   42      H      -3.3204069998     2.1225309699     1.8527683967
   43      H      -0.9204462341     2.2995947825     1.3900627157
   44      H      -0.5908242003     3.1955215593    -1.3591764809
   45      H       0.4616196498     5.4169755639    -1.3173241858
   46      H       2.7217139161     5.7001789482    -0.3531475976
   47      H       3.8822744566     3.7414025708     0.6240902427
 ----------------------------------------------------------------

    9   -1590.4674645321      6.30e-06  Convergence criterion met
 Total energy in the final basis set =    -1590.4674645321

                    Orbital Energies (a.u.)
 --------------------------------------------------------------

 Alpha MOs
 -- Occupied --
-24.7458 -24.7350 -24.7242 -24.7171 -24.7167 -19.1924 -19.1356 -14.3801
-10.4276 -10.3573 -10.3163 -10.2453 -10.2428 -10.2361 -10.2352 -10.2143
-10.2093 -10.2082 -10.2050 -10.2034 -10.2029 -10.2014 -10.2009 -10.1995
-10.1992 -10.1985 -10.1974 -10.1969 -10.1950 -10.1944 -10.1943  -1.3035
 -1.2866  -1.2257  -1.2144  -1.2078  -1.1102  -1.0196  -0.9948  -0.8804
 -0.8772  -0.8610  -0.8119  -0.7885  -0.7833  -0.7776  -0.7585  -0.7553
 -0.7318  -0.7200  -0.6970  -0.6578  -0.6518  -0.6337  -0.6271  -0.6215
 -0.6202  -0.5972  -0.5825  -0.5774  -0.5754  -0.5734  -0.5621  -0.5490
 -0.5370  -0.5235  -0.5202  -0.5103  -0.5010  -0.4951  -0.4863  -0.4816
 -0.4747  -0.4670  -0.4609  -0.4556  -0.4546  -0.4516  -0.4493  -0.4458
 -0.4421  -0.4419  -0.4335  -0.4281  -0.4237  -0.4162  -0.4139  -0.4099
 -0.4078  -0.4006  -0.3948  -0.3927  -0.3870  -0.3852  -0.3773  -0.3737
 -0.3713  -0.3666  -0.3595  -0.3523  -0.3508  -0.3329  -0.3075  -0.2958
 -0.2836  -0.2730  -0.2686  -0.2618  -0.2589  -0.2401  -0.1914

          Ground-State Mulliken Net Atomic Charges

     Atom                 Charge (a.u.)
  ----------------------------------------
      1 C                    -0.225184
      2 O                    -0.437467
      3 C                     0.538820
      4 C                     0.071981
      5 C                     0.253969
      6 N                    -0.649600
      7 C                     0.292218
      8 C                    -0.210460
      9 C                    -0.012958
     10 C                     0.777359
     11 F                    -0.267296
     12 F                    -0.265496
     13 F                    -0.270162
     14 C                    -0.171191
     15 C                    -0.126737
     16 C                    -0.168656
     17 C                     0.287286
     18 C                    -0.171497
     19 C                    -0.204887
     20 C                     0.201081
     21 C                    -0.300483
     22 C                     0.542269
     23 F                    -0.234861
     24 F                    -0.248322
     25 C                    -0.206553
     26 C                    -0.168929
     27 C                    -0.167295
     28 C                    -0.129296
     29 C                    -0.133223
     30 C                    -0.172148
     31 O                    -0.482330
     32 H                     0.169566
     33 H                     0.162345
     34 H                     0.180336
     35 H                     0.169802
     36 H                     0.149842
     37 H                     0.144543
     38 H                     0.157473
     39 H                     0.151090
     40 H                     0.144833
     41 H                     0.159223
     42 H                     0.132725
     43 H                     0.152042
     44 H                     0.153102
     45 H                     0.139031
     46 H                     0.136314
     47 H                     0.157780
  ----------------------------------------
  Sum of atomic charges =     0.000000

                    Cartesian Multipole Moments
 -----------------------------------------------------------------
    Charge (ESU x 10^10)
                 0.0000
    Dipole Moment (Debye)
         X      -0.3975      Y       3.1357      Z      -0.2645
       Tot       3.1719
    Quadrupole Moments (Debye-Ang)
        XX    -182.1553     XY      -3.6458     YY    -167.5680
        XZ      -4.1834     YZ       1.4613     ZZ    -164.6669

 Total job time:  214.64s(wall), 214.11s(cpu)
        *  Thank you very much for using Q-Chem.  Have a nice day.  *
