 Q-Chem 5.2, Q-Chem, Inc., Pleasanton, CA (2019)
 Q-Chem 5.2.1 for Intel X86 EM64T Linux

User input:
--------------------------------------------------------------
$molecule
0 1
C         1.63101481400000   -0.57117391580000   -3.36564819980000
O         1.06749461240000   -1.10255021970000   -2.17603662790000
C         1.93465539710000   -1.66597928870000   -1.31949612070000
C         1.24697929660000   -2.22362032000000   -0.12330320950000
C         0.24005003630000   -1.53327025210000    0.56425087370000
N        -0.09807251260000   -0.21226151390000    0.23287666730000
C         0.90649590950000    0.70844247190000   -0.04922237760000
C         2.14795026840000    0.60408683600000    0.58143345580000
C         3.15310061760000    1.50185873180000    0.27000785680000
C         4.48372687460000    1.41414261210000    0.96054325380000
F         4.66192549390000    0.27723610700000    1.64272685620000
F         5.51380419430000    1.52099402610000    0.10666785290000
F         4.64427926270000    2.41479846470000    1.85510703490000
C         2.94949614300000    2.52300632880000   -0.64982645790000
C         1.71253229340000    2.63125574390000   -1.26293872270000
C         0.70145773760000    1.73700404380000   -0.97198854870000
C        -1.44548846110000    0.15554479500000    0.19802760110000
C        -1.85721931440000    1.41588651580000    0.63376147290000
C        -3.19058865540000    1.75902596040000    0.60344604400000
C        -4.16170420850000    0.86317956690000    0.14607580590000
C        -5.54775435820000    1.29418513920000    0.14655304500000
C        -6.62362048990000    0.61608537430000   -0.22767060760000
F        -6.68727140020000   -0.62547755730000   -0.69536708100000
F        -7.85476664090000    1.12232129030000   -0.18028632370000
C        -3.74167610200000   -0.39836667240000   -0.28448309890000
C        -2.40835578290000   -0.74480351240000   -0.25984243150000
C        -0.40231088880000   -2.16300005850000    1.62910042190000
C        -0.04325542610000   -3.44064594190000    2.01209602670000
C         0.98287693550000   -4.10539249720000    1.35820581980000
C         1.62620320230000   -3.49303261310000    0.29944442740000
O         3.11552689210000   -1.75382709590000   -1.53310748260000
H         0.79645907910000   -0.21610523640000   -3.96427833860000
H         2.18706398890000   -1.34450452820000   -3.89917086520000
H         2.31014771850000    0.25004594310000   -3.12684432280000
H         2.32653006540000   -0.17525399290000    1.30631630680000
H         3.74730934700000    3.21096848180000   -0.87985567540000
H         1.54048397940000    3.41403869170000   -1.98560157170000
H        -0.25149722100000    1.81425919800000   -1.47279936280000
H        -1.12583421930000    2.11816238070000    1.00516326130000
H        -3.49229102730000    2.73637119430000    0.95008021390000
H        -5.74017106610000    2.29780570260000    0.49777678870000
H        -4.45758487580000   -1.11533409500000   -0.65045436380000
H        -2.09734967190000   -1.71909936990000   -0.60526429030000
H        -1.17959215620000   -1.63264302860000    2.15913233400000
H        -0.55303301840000   -3.91113027410000    2.83914446560000
H         1.27821957700000   -5.09407490610000    1.67223644150000
H         2.42401298180000   -3.99236031330000   -0.22874936330000
$end

$rem
BASIS = 6-31G*
GUI = 2
METHOD = B3LYP
PRINT_ORBITALS false
MOLDEN_FORMAT false
--------------------------------------------------------------

             Standard Nuclear Orientation (Angstroms)
    I     Atom           X                Y                Z
 ----------------------------------------------------------------
    1      C       1.5284356986    -0.3301444640    -3.4248826688
    2      O       0.9971847395    -0.9391751977    -2.2578584747
    3      C       1.8853980736    -1.5661626401    -1.4697940083
    4      C       1.2300328899    -2.2010622456    -0.2941501904
    5      C       0.2505754904    -1.5536898590     0.4705671198
    6      N      -0.0863173442    -0.2107547929     0.2420317059
    7      C       0.9169103895     0.7209012916    -0.0069350987
    8      C       2.1761981040     0.5651645058     0.5759596686
    9      C       3.1789128221     1.4759749275     0.2961470975
   10      C       4.5293058192     1.3321169298     0.9371175476
   11      F       4.7186835476     0.1495166282     1.5331697428
   12      F       5.5335708364     1.4914002447     0.0609552851
   13      F       4.7257264600     2.2672652579     1.8932818114
   14      C       2.9558669829     2.5597449897    -0.5440822577
   15      C       1.7016388509     2.7181205569    -1.1093548672
   16      C       0.6924046268     1.8122798105    -0.8495305275
   17      C      -1.4309940391     0.1671339515     0.2747480566
   18      C      -1.8184374089     1.3968018084     0.8092124172
   19      C      -3.1491451263     1.7496798881     0.8443056481
   20      C      -4.1414137000     0.8939063031     0.3566086501
   21      C      -5.5230841106     1.3326355518     0.4301244408
   22      C      -6.6156487916     0.6889770044     0.0436575485
   23      F      -6.7041672952    -0.5167209036    -0.5065487507
   24      F      -7.8404152755     1.1985159389     0.1643143028
   25      C      -3.7455287430    -0.3373748411    -0.1730377785
   26      C      -2.4150721523    -0.6931483302    -0.2140158779
   27      C      -0.3641398705    -2.2516795147     1.5088480130
   28      C      -0.0043724359    -3.5550710593     1.7912012252
   29      C       0.9955287543    -4.1793594040     1.0612219915
   30      C       1.6112481589    -3.4991259474     0.0277806247
   31      O       3.0583705795    -1.6464791722    -1.7257027693
   32      H       0.6789533920     0.0708901402    -3.9712032174
   33      H       2.0612623404    -1.0681172648    -4.0276838555
   34      H       2.2215295584     0.4682006556    -3.1511732940
   35      H       2.3703053279    -0.2637032661     1.2392986629
   36      H       3.7520641432     3.2569257548    -0.7507712414
   37      H       1.5141571616     3.5502265957    -1.7704460223
   38      H      -0.2747763863     1.9301419897    -1.3138282532
   39      H      -1.0700602851     2.0669615328     1.2052836995
   40      H      -3.4317542762     2.7025208105     1.2669278437
   41      H      -5.6960989033     2.3106754359     0.8557303729
   42      H      -4.4783956167    -1.0226654558    -0.5651927773
   43      H      -2.1231008717    -1.6430904782    -0.6355086611
   44      H      -1.1202582450    -1.7544426768     2.0982707021
   45      H      -0.4925145530    -4.0785477112     2.5992403883
   46      H       1.2919552046    -5.1893005901     1.2967757501
   47      H       2.3882047093    -3.9656667392    -0.5583042544
 ----------------------------------------------------------------

    9   -1590.4667740663      6.22e-06  Convergence criterion met
 Total energy in the final basis set =    -1590.4667740663

                    Orbital Energies (a.u.)
 --------------------------------------------------------------

 Alpha MOs
 -- Occupied --
-24.7470 -24.7362 -24.7180 -24.7133 -24.7078 -19.1929 -19.1361 -14.3802
-10.4224 -10.3584 -10.3162 -10.2448 -10.2428 -10.2378 -10.2370 -10.2129
-10.2090 -10.2090 -10.2062 -10.2028 -10.2027 -10.2024 -10.2011 -10.1993
-10.1991 -10.1990 -10.1987 -10.1964 -10.1958 -10.1956 -10.1945  -1.2978
 -1.2877  -1.2269  -1.2092  -1.2010  -1.1108  -1.0201  -0.9949  -0.8799
 -0.8777  -0.8612  -0.8121  -0.7905  -0.7839  -0.7720  -0.7598  -0.7588
 -0.7320  -0.7201  -0.6937  -0.6579  -0.6523  -0.6346  -0.6264  -0.6206
 -0.6200  -0.5965  -0.5800  -0.5747  -0.5720  -0.5711  -0.5639  -0.5514
 -0.5360  -0.5214  -0.5201  -0.5102  -0.5037  -0.4966  -0.4833  -0.4805
 -0.4737  -0.4711  -0.4600  -0.4566  -0.4515  -0.4484  -0.4482  -0.4439
 -0.4434  -0.4423  -0.4346  -0.4286  -0.4244  -0.4149  -0.4108  -0.4050
 -0.4040  -0.4019  -0.3936  -0.3866  -0.3859  -0.3847  -0.3777  -0.3750
 -0.3721  -0.3662  -0.3597  -0.3527  -0.3518  -0.3331  -0.3077  -0.2957
 -0.2837  -0.2719  -0.2701  -0.2627  -0.2593  -0.2409  -0.1913

          Ground-State Mulliken Net Atomic Charges

     Atom                 Charge (a.u.)
  ----------------------------------------
      1 C                    -0.222820
      2 O                    -0.437945
      3 C                     0.539194
      4 C                     0.074788
      5 C                     0.249690
      6 N                    -0.648046
      7 C                     0.294643
      8 C                    -0.230213
      9 C                     0.005709
     10 C                     0.777756
     11 F                    -0.261517
     12 F                    -0.264873
     13 F                    -0.268967
     14 C                    -0.162150
     15 C                    -0.149677
     16 C                    -0.159292
     17 C                     0.289875
     18 C                    -0.174603
     19 C                    -0.207155
     20 C                     0.200562
     21 C                    -0.300609
     22 C                     0.541485
     23 F                    -0.235896
     24 F                    -0.248434
     25 C                    -0.206286
     26 C                    -0.169361
     27 C                    -0.165507
     28 C                    -0.128401
     29 C                    -0.132330
     30 C                    -0.170257
     31 O                    -0.478828
     32 H                     0.161467
     33 H                     0.169474
     34 H                     0.175408
     35 H                     0.172135
     36 H                     0.150021
     37 H                     0.139102
     38 H                     0.154325
     39 H                     0.150484
     40 H                     0.132790
     41 H                     0.159257
     42 H                     0.143207
     43 H                     0.152612
     44 H                     0.153002
     45 H                     0.139807
     46 H                     0.137420
     47 H                     0.158953
  ----------------------------------------
  Sum of atomic charges =     0.000000

                    Cartesian Multipole Moments
 -----------------------------------------------------------------
    Charge (ESU x 10^10)
                 0.0000
    Dipole Moment (Debye)
         X      -3.1832      Y       0.3290      Z      -0.6801
       Tot       3.2716
    Quadrupole Moments (Debye-Ang)
        XX    -200.1087     XY      -1.5717     YY    -156.5633
        XZ      -5.5210     YZ      -7.0905     ZZ    -164.6454

 Total job time:  215.33s(wall), 213.57s(cpu)
        *  Thank you very much for using Q-Chem.  Have a nice day.  *
