 Q-Chem 5.2, Q-Chem, Inc., Pleasanton, CA (2019)
 Q-Chem 5.2.1 for Intel X86 EM64T Linux

User input:
--------------------------------------------------------------
$molecule
0 1
C         4.42807336170000    0.06808687330000   -0.01276991880000
C         3.43668327280000   -0.81226624780000    0.02710191400000
C         2.03733137600000   -0.43840389400000    0.01426497810000
C         0.92016461610000   -1.31426179230000    0.05933933810000
C        -0.16371262450000   -0.47276852540000    0.02354104380000
C        -1.57164128190000   -0.76791801910000    0.04251035320000
C        -2.53930604210000    0.14086596480000    0.00035559940000
F        -2.39529384620000    1.44895320080000   -0.06543732310000
F        -3.82867985720000   -0.16917495230000    0.01982398880000
O         0.27625439940000    0.79874234110000   -0.03783236790000
N         1.62114338540000    0.80880358200000   -0.04293634550000
H         5.45945847110000   -0.23905823060000   -0.00185747390000
H         4.22143552160000    1.12317830570000   -0.05738927260000
H         3.62611169360000   -1.87630561470000    0.07237337170000
H         0.92357563820000   -2.38239708200000    0.10963981100000
H        -1.85273366510000   -1.80674033960000    0.09496805830000
$end

$rem
BASIS = 6-31G*
GUI = 2
METHOD = B3LYP
PRINT_ORBITALS false
MOLDEN_FORMAT false
--------------------------------------------------------------

             Standard Nuclear Orientation (Angstroms)
    I     Atom           X                Y                Z
 ----------------------------------------------------------------
    1      C       4.2906280113    -0.4520647654    -0.0024263273
    2      C       3.3726627233     0.5054227765     0.0023722439
    3      C       1.9479351560     0.2441308339     0.0011650987
    4      C       0.9042412321     1.2074185606     0.0008929458
    5      C      -0.2433429742     0.4542712818    -0.0005123129
    6      C      -1.6232211582     0.8612985492    -0.0015910437
    7      C      -2.6603377087     0.0315831314    -0.0001673614
    8      F      -2.6211966238    -1.2854663692     0.0028371106
    9      F      -3.9208505092     0.4440092354    -0.0013556247
   10      O       0.0937321577    -0.8497447068    -0.0009797739
   11      N       1.4335269300    -0.9672294550     0.0000029570
   12      H       5.3432376467    -0.2279565288    -0.0014808032
   13      H       4.0004401459    -1.4882464907    -0.0075692306
   14      H       3.6464104663     1.5519168920     0.0073366404
   15      H       0.9928966719     2.2730613592     0.0015321274
   16      H      -1.8204981950     1.9205406039    -0.0037340726
 ----------------------------------------------------------------

   10    -599.3050683885      2.91e-06  Convergence criterion met
 Total energy in the final basis set =     -599.3050683885

                    Orbital Energies (a.u.)
 --------------------------------------------------------------

 Alpha MOs
 -- Occupied --
-24.7534 -24.7503 -19.2427 -14.3728 -10.3765 -10.2690 -10.2267 -10.2233
-10.2008 -10.1983 -10.1888  -1.3005  -1.2395  -1.1647  -0.8820  -0.8395
 -0.7788  -0.7718  -0.6641  -0.6407  -0.6231  -0.5899  -0.5777  -0.5337
 -0.5245  -0.4961  -0.4818  -0.4727  -0.4569  -0.4528  -0.4502  -0.4302
 -0.4104  -0.3962  -0.3694  -0.3422  -0.3200  -0.2946  -0.2537  -0.2313

          Ground-State Mulliken Net Atomic Charges

     Atom                 Charge (a.u.)
  ----------------------------------------
      1 C                    -0.332433
      2 C                    -0.097291
      3 C                     0.307353
      4 C                    -0.304075
      5 C                     0.435204
      6 C                    -0.316126
      7 C                     0.579901
      8 F                    -0.214417
      9 F                    -0.238045
     10 O                    -0.374556
     11 N                    -0.232681
     12 H                     0.147932
     13 H                     0.176267
     14 H                     0.133967
     15 H                     0.148449
     16 H                     0.180551
  ----------------------------------------
  Sum of atomic charges =     0.000000

                    Cartesian Multipole Moments
 -----------------------------------------------------------------
    Charge (ESU x 10^10)
                 0.0000
    Dipole Moment (Debye)
         X       0.2065      Y       3.0995      Z      -0.0009
       Tot       3.1064
    Quadrupole Moments (Debye-Ang)
        XX     -54.9954     XY       1.2624     YY     -58.0820
        XZ       0.0033     YZ       0.0128     ZZ     -61.8038

 Total job time:  18.33s(wall), 17.39s(cpu)
        *  Thank you very much for using Q-Chem.  Have a nice day.  *
