 Q-Chem 5.2, Q-Chem, Inc., Pleasanton, CA (2019)
 Q-Chem 5.2.1 for Intel X86 EM64T Linux

User input:
--------------------------------------------------------------
$molecule
0 1
C        -4.05573085860000   -0.17646924700000    0.10154745790000
C        -2.94913493620000   -0.89318920150000   -0.05036383870000
C        -1.57767049970000   -0.39672322090000   -0.03351691610000
C        -0.51550920710000   -1.33541134560000   -0.02124766390000
C         0.80429782300000   -0.95059918630000   -0.00038158620000
C         1.94493347070000   -1.85342722950000    0.01687691640000
C         1.89766056760000   -3.18042663790000    0.02678693670000
C         1.07677712520000    0.43845613950000    0.00141550020000
N         2.23210468200000    1.07644940780000    0.01448710000000
C         1.92786541760000    2.38865149360000    0.00367173460000
C         0.56890963700000    2.58416089760000   -0.01713057340000
N         0.01386153000000    1.34150309210000   -0.01782652300000
C        -1.27606316980000    0.94245960540000   -0.03469446540000
H        -5.02697426820000   -0.63915671180000    0.07586271490000
H        -4.04672251230000    0.88779391800000    0.26232134750000
H        -3.03335273150000   -1.96329149070000   -0.19166530520000
H        -0.76710983970000   -2.38429732620000   -0.02499186840000
H         2.89615520700000   -1.33965176780000    0.02292494040000
H         0.97339752900000   -3.73350735270000    0.02265546100000
H         2.79818734820000   -3.76936754730000    0.04008686360000
H         2.70296057650000    3.12975899660000    0.01102246860000
H        -0.01950403200000    3.47834255930000   -0.03007040180000
H        -2.02412435520000    1.71926580540000   -0.05788560510000
$end

$rem
BASIS = 6-31G*
GUI = 2
METHOD = B3LYP
PRINT_ORBITALS false
MOLDEN_FORMAT false
--------------------------------------------------------------

             Standard Nuclear Orientation (Angstroms)
    I     Atom           X                Y                Z
 ----------------------------------------------------------------
    1      C       4.0235349916    -0.1943679676     0.0930623184
    2      C       2.9821526860     0.6143024585    -0.0582456661
    3      C       1.5732123416     0.2372769254    -0.0378534466
    4      C       0.5954618944     1.2635928143    -0.0255124267
    5      C      -0.7524311606     0.9933884970    -0.0014224529
    6      C      -1.8114310899     1.9907135311     0.0161257225
    7      C      -1.6505490212     3.3087902877     0.0232664095
    8      C      -1.1429864425    -0.3671861484     0.0036867595
    9      N      -2.3487267929    -0.9037548040     0.0201890566
   10      C      -2.1581247888    -2.2372267846     0.0114615801
   11      C      -0.8209778664    -2.5485625875    -0.0114644426
   12      N      -0.1614430485    -1.3580697537    -0.0157004289
   13      C       1.1579058751    -1.0711172011    -0.0357656536
   14      H       5.0308148953     0.1832994269     0.0646424019
   15      H       3.9236456086    -1.2536403199     0.2560030226
   16      H       3.1575143955     1.6729805701    -0.2018652246
   17      H       0.9360488611     2.2870375586    -0.0318426174
   18      H      -2.8031824976     1.5603933843     0.0249751242
   19      H      -0.6822835062     3.7805857191     0.0163040880
   20      H      -2.4972420036     3.9727917194     0.0370452914
   21      H      -2.9938848818    -2.9091390960     0.0217466330
   22      H      -0.3114157662    -3.4899211713    -0.0236878635
   23      H       1.8365692690    -1.9092388372    -0.0587734603
 ----------------------------------------------------------------

    9    -534.6448729848      3.28e-06  Convergence criterion met
 Total energy in the final basis set =     -534.6448729848

                    Orbital Energies (a.u.)
 --------------------------------------------------------------

 Alpha MOs
 -- Occupied --
-14.4172 -14.3054 -10.2429 -10.2388 -10.2103 -10.2088 -10.2059 -10.2045
-10.2008 -10.1970 -10.1879 -10.1874 -10.1812  -1.0424  -0.9127  -0.8535
 -0.8100  -0.7653  -0.7374  -0.7336  -0.6640  -0.6305  -0.6162  -0.5845
 -0.5594  -0.5371  -0.4915  -0.4874  -0.4732  -0.4675  -0.4621  -0.4409
 -0.4278  -0.4193  -0.3991  -0.3758  -0.3661  -0.3613  -0.3518  -0.3437
 -0.3010  -0.2664  -0.2566  -0.2280  -0.2009

          Ground-State Mulliken Net Atomic Charges

     Atom                 Charge (a.u.)
  ----------------------------------------
      1 C                    -0.355215
      2 C                    -0.109339
      3 C                     0.116043
      4 C                    -0.253138
      5 C                     0.131877
      6 C                    -0.101718
      7 C                    -0.351504
      8 C                     0.442030
      9 N                    -0.512081
     10 C                    -0.013427
     11 C                    -0.011605
     12 N                    -0.468865
     13 C                     0.019597
     14 H                     0.148866
     15 H                     0.138934
     16 H                     0.133791
     17 H                     0.133478
     18 H                     0.168858
     19 H                     0.140471
     20 H                     0.149558
     21 H                     0.140122
     22 H                     0.152262
     23 H                     0.161003
  ----------------------------------------
  Sum of atomic charges =     0.000000

                    Cartesian Multipole Moments
 -----------------------------------------------------------------
    Charge (ESU x 10^10)
                 0.0000
    Dipole Moment (Debye)
         X       2.7613      Y      -0.7106      Z      -0.0562
       Tot       2.8518
    Quadrupole Moments (Debye-Ang)
        XX     -74.9914     XY      -0.9999     YY     -62.8626
        XZ      -0.0115     YZ      -0.2862     ZZ     -79.8246

 Total job time:  32.62s(wall), 32.50s(cpu)
        *  Thank you very much for using Q-Chem.  Have a nice day.  *
