 Q-Chem 5.2, Q-Chem, Inc., Pleasanton, CA (2019)
 Q-Chem 5.2.1 for Intel X86 EM64T Linux

User input:
--------------------------------------------------------------
$molecule
0 1
C         1.75022737280000    3.57965480820000    0.30870481400000
C         2.20266909420000    2.35572864710000    0.06677878710000
C         1.40994839850000    1.13097403570000    0.03026045290000
C         2.06691506190000   -0.09608759770000   -0.02726517560000
C         1.37685648550000   -1.30575576730000   -0.05763787180000
C         2.04234360180000   -2.60284957150000   -0.11451642650000
C         3.34952041730000   -2.82189942020000   -0.18635952510000
C        -0.01783816720000   -1.27227450720000   -0.03395659290000
C        -0.68041372100000   -0.05614780720000    0.01883444420000
C        -2.18197265560000   -0.03108227480000    0.00212666730000
F        -2.73221594580000   -1.12976302650000    0.54206657670000
F        -2.69499446200000    1.01626385390000    0.66805852950000
F        -2.67227656280000    0.05177018700000   -1.25258646830000
C         0.01503304310000    1.14137646010000    0.04621348660000
H         2.41382941120000    4.42695665430000    0.32065934290000
H         0.71456750170000    3.79089997190000    0.51169859090000
H         3.26112158420000    2.21117583910000   -0.11063983130000
H         3.14614525940000   -0.10118235770000   -0.04166100790000
H         1.36897296730000   -3.45051892660000   -0.09737800560000
H         4.07722184090000   -2.02915846010000   -0.21138713960000
H         3.74470013920000   -3.82217110050000   -0.22536509660000
H        -0.58353590460000   -2.19167265860000   -0.05579060810000
H        -0.52901356530000    2.07138578410000    0.07646382080000
$end

$rem
BASIS = 6-31G*
GUI = 2
METHOD = B3LYP
PRINT_ORBITALS false
MOLDEN_FORMAT false
--------------------------------------------------------------

             Standard Nuclear Orientation (Angstroms)
    I     Atom           X                Y                Z
 ----------------------------------------------------------------
    1      C      -0.9560100976    -3.8202413884     0.0954319028
    2      C      -1.6230027498    -2.6852020419    -0.0720000098
    3      C      -1.0626325245    -1.3381779928    -0.0362932894
    4      C      -1.9291325466    -0.2475458773    -0.0191483962
    5      C      -1.4669872934     1.0658973645     0.0219494808
    6      C      -2.3543876567     2.2237389559     0.0439506957
    7      C      -3.6804470398     2.2087301907    -0.0125890540
    8      C      -0.0886101315     1.2816590753     0.0413982794
    9      C       0.7813939480     0.2030489351     0.0201738681
   10      C       2.2629027243     0.4486032211    -0.0003566732
   11      F       2.6143532563     1.5945206209     0.6035953238
   12      F       2.9631183713    -0.5270462287     0.6008061426
   13      F       2.7446721373     0.5287626888    -1.2585459264
   14      C       0.3117389941    -1.0992587065    -0.0231760512
   15      H      -1.4571661324    -4.7719998754     0.0576244192
   16      H       0.1031462061    -3.8539396664     0.2837792195
   17      H      -2.6923397641    -2.7225856913    -0.2387794050
   18      H      -2.9919651698    -0.4351749987    -0.0315235165
   19      H      -1.8433297285     3.1759024383     0.1108055329
   20      H      -4.2548768200     1.3012318902    -0.0839419479
   21      H      -4.2486107037     3.1224884022     0.0090410997
   22      H       0.3032114363     2.2872476741     0.0738180899
   23      H       1.0136830332    -1.9168143164    -0.0495678702
 ----------------------------------------------------------------

    9    -724.0831967174      3.48e-06  Convergence criterion met
 Total energy in the final basis set =     -724.0831967174

                    Orbital Energies (a.u.)
 --------------------------------------------------------------

 Alpha MOs
 -- Occupied --
-24.7213 -24.7207 -24.7128 -10.4273 -10.2156 -10.2112 -10.2106 -10.2055
-10.2053 -10.2021 -10.2004 -10.2003 -10.1904 -10.1903  -1.3026  -1.2135
 -1.2066  -0.8875  -0.8176  -0.8086  -0.7570  -0.7377  -0.6973  -0.6470
 -0.6349  -0.6072  -0.5787  -0.5763  -0.5516  -0.5419  -0.5121  -0.4976
 -0.4679  -0.4653  -0.4533  -0.4509  -0.4370  -0.4209  -0.4161  -0.4095
 -0.4031  -0.3933  -0.3920  -0.3849  -0.3786  -0.3548  -0.3494  -0.3292
 -0.3001  -0.2468  -0.2331

          Ground-State Mulliken Net Atomic Charges

     Atom                 Charge (a.u.)
  ----------------------------------------
      1 C                    -0.349078
      2 C                    -0.112169
      3 C                     0.176785
      4 C                    -0.250003
      5 C                     0.178589
      6 C                    -0.110221
      7 C                    -0.350768
      8 C                    -0.237535
      9 C                    -0.005049
     10 C                     0.776554
     11 F                    -0.266762
     12 F                    -0.267740
     13 F                    -0.261810
     14 C                    -0.220014
     15 H                     0.150317
     16 H                     0.150101
     17 H                     0.131700
     18 H                     0.132833
     19 H                     0.133654
     20 H                     0.146352
     21 H                     0.150545
     22 H                     0.152218
     23 H                     0.151500
  ----------------------------------------
  Sum of atomic charges =     0.000000

                    Cartesian Multipole Moments
 -----------------------------------------------------------------
    Charge (ESU x 10^10)
                 0.0000
    Dipole Moment (Debye)
         X      -2.6471      Y      -0.4852      Z       0.0854
       Tot       2.6926
    Quadrupole Moments (Debye-Ang)
        XX     -77.5514     XY      -1.4842     YY     -70.2464
        XZ       0.7825     YZ       0.1934     ZZ     -83.1765

 Total job time:  33.18s(wall), 33.07s(cpu)
        *  Thank you very much for using Q-Chem.  Have a nice day.  *
