 Q-Chem 5.2, Q-Chem, Inc., Pleasanton, CA (2019)
 Q-Chem 5.2.1 for Intel X86 EM64T Linux

User input:
--------------------------------------------------------------
$molecule
0 1
C        -3.69859906320000   -1.85627630510000    0.03337011290000
C        -3.41914581700000   -0.55816500750000    0.05099565010000
C        -2.09149184470000    0.03571325660000    0.03357367880000
C        -1.95041041450000    1.42807302030000   -0.03341905270000
N        -0.79994044090000    2.05368745100000   -0.07232899150000
C         0.34181214560000    1.36506188120000   -0.02784437510000
C         1.57175778770000    2.13953066790000   -0.10692303100000
C         1.57644830930000    3.46771671550000   -0.16661248080000
C         0.32378719140000   -0.04478612720000    0.06639254200000
C         1.55866988200000   -0.86272041520000    0.15196563950000
O         2.62491084240000   -0.50553393950000    0.58886314290000
O         1.35366938530000   -2.10455054450000   -0.32207585250000
C         2.47297069780000   -2.97528802100000   -0.27356752820000
C        -0.90611156330000   -0.69339120060000    0.08918781530000
H        -4.71526104200000   -2.20920101560000    0.04531399960000
H        -2.93599611650000   -2.61554496100000    0.00281054520000
H        -4.23014716910000    0.15949144210000    0.07224328460000
H        -2.82622608770000    2.06630920200000   -0.06011654210000
H         2.49366784820000    1.57972463610000   -0.10108913850000
H         0.65323838490000    4.02147735130000   -0.15500484030000
H         2.49380371670000    4.02738320830000   -0.22596843000000
H         2.13551490560000   -3.92685458490000   -0.67620773660000
H         2.81889252280000   -3.09255227860000    0.75567980920000
H         3.29218274710000   -2.57394579430000   -0.87387431850000
H        -0.92606817800000   -1.76917743100000    0.16574998200000
$end

$rem
BASIS = 6-31G*
GUI = 2
METHOD = B3LYP
PRINT_ORBITALS false
MOLDEN_FORMAT false
--------------------------------------------------------------

             Standard Nuclear Orientation (Angstroms)
    I     Atom           X                Y                Z
 ----------------------------------------------------------------
    1      C       3.7279949844    -1.7568178185    -0.0247946900
    2      C       3.4214515906    -0.4648418224    -0.0428748065
    3      C       2.0815761312     0.1010549508    -0.0304416534
    4      C       1.9110602723     1.4901102846     0.0366949901
    5      N       0.7475775052     2.0914390378     0.0713380353
    6      C      -0.3792964441     1.3790490872     0.0219549831
    7      C      -1.6255181196     2.1275091214     0.0965252898
    8      C      -1.6582992839     3.4552692535     0.1568695954
    9      C      -0.3313340229    -0.0300550009    -0.0729248216
   10      C      -1.5484417665    -0.8736538438    -0.1638327233
   11      O      -2.6201948882    -0.5386465503    -0.6047938917
   12      O      -1.3193278215    -2.1111920171     0.3103915694
   13      C      -2.4199203956    -3.0051806242     0.2569818813
   14      C       0.9119775628    -0.6527132624    -0.0911485133
   15      H       4.7518742884    -2.0883387088    -0.0328666763
   16      H       2.9813676622    -2.5319290008     0.0023407145
   17      H       4.2173019818     0.2696757083    -0.0605266260
   18      H       2.7731853249     2.1465558297     0.0672058573
   19      H      -2.5354547770     1.5484975523     0.0867339890
   20      H      -0.7468669802     4.0282743214     0.1492216153
   21      H      -2.5874187743     3.9955408419     0.2128538675
   22      H      -2.0641850292    -3.9496993676     0.6604805394
   23      H      -2.7592149602    -3.1290647437    -0.7736949934
   24      H      -3.2497477257    -2.6214600859     0.8542233382
   25      H       0.9547950775    -1.7277990252    -0.1681764840
 ----------------------------------------------------------------

    9    -630.9586300304      6.02e-06  Convergence criterion met
 Total energy in the final basis set =     -630.9586300304

                    Orbital Energies (a.u.)
 --------------------------------------------------------------

 Alpha MOs
 -- Occupied --
-19.1990 -19.1409 -14.3294 -10.3219 -10.2443 -10.2376 -10.2287 -10.2137
-10.2128 -10.2080 -10.2014 -10.1905 -10.1791 -10.1775  -1.1162  -1.0243
 -0.9577  -0.8363  -0.8146  -0.7792  -0.7412  -0.7268  -0.6586  -0.6531
 -0.5954  -0.5753  -0.5626  -0.5260  -0.5182  -0.4963  -0.4901  -0.4751
 -0.4591  -0.4474  -0.4326  -0.4226  -0.4190  -0.4069  -0.3977  -0.3967
 -0.3680  -0.3624  -0.3540  -0.3370  -0.3083  -0.2928  -0.2776  -0.2751
 -0.2560  -0.2226

          Ground-State Mulliken Net Atomic Charges

     Atom                 Charge (a.u.)
  ----------------------------------------
      1 C                    -0.349914
      2 C                    -0.115722
      3 C                     0.145025
      4 C                    -0.007219
      5 N                    -0.496257
      6 C                     0.263511
      7 C                    -0.105311
      8 C                    -0.326529
      9 C                     0.030182
     10 C                     0.564394
     11 O                    -0.482296
     12 O                    -0.450817
     13 C                    -0.218525
     14 C                    -0.180246
     15 H                     0.150548
     16 H                     0.146998
     17 H                     0.134748
     18 H                     0.143515
     19 H                     0.169501
     20 H                     0.170477
     21 H                     0.144352
     22 H                     0.165765
     23 H                     0.171366
     24 H                     0.171132
     25 H                     0.161323
  ----------------------------------------
  Sum of atomic charges =     0.000000

                    Cartesian Multipole Moments
 -----------------------------------------------------------------
    Charge (ESU x 10^10)
                 0.0000
    Dipole Moment (Debye)
         X       1.2724      Y      -2.4932      Z       0.5991
       Tot       2.8625
    Quadrupole Moments (Debye-Ang)
        XX     -74.9420     XY       2.7082     YY     -72.4402
        XZ      -3.2739     YZ      -0.0318     ZZ     -83.7369

 Total job time:  40.60s(wall), 40.26s(cpu)
        *  Thank you very much for using Q-Chem.  Have a nice day.  *
