 Q-Chem 5.2, Q-Chem, Inc., Pleasanton, CA (2019)
 Q-Chem 5.2.1 for Intel X86 EM64T Linux

User input:
--------------------------------------------------------------
$molecule
0 1
C         0.89364891730000    4.65046077650000   -0.32600976430000
O         2.21543683120000    4.19149374910000   -0.19272452250000
C         2.43512254810000    2.84953576440000   -0.09781034970000
C         3.78346667580000    2.47830169140000    0.03237973350000
C         4.15564958510000    1.15766732630000    0.11819588720000
C         1.43418968330000    1.88931232110000   -0.12569858630000
C         1.81500052880000    0.55866128190000   -0.01082796850000
C         3.16897517580000    0.17832393510000    0.09279349130000
C         3.19158446640000   -1.25654653300000    0.13442849470000
C         4.21012339960000   -2.19286165670000    0.25093979290000
C         3.87672568920000   -3.53244562330000    0.28614988060000
C         2.54726428850000   -3.94144234820000    0.22427671630000
C         1.51604933120000   -3.02764682460000    0.10834180420000
C         1.84699427140000   -1.68292034010000    0.04446738910000
N         1.02270081000000   -0.57338800900000   -0.04105374970000
C        -0.36958111920000   -0.59636463070000   -0.14098859250000
C        -0.99761309900000   -1.41854568420000   -1.07534937220000
C        -2.37239421160000   -1.43692765350000   -1.16770072300000
C        -3.16486295080000   -0.63371556770000   -0.34264620270000
C        -4.60701663080000   -0.70116626420000   -0.50125291230000
C        -5.54144053480000   -0.01425909400000    0.14030304230000
F        -5.37876752420000    0.90568431980000    1.08446562320000
F        -6.84391624120000   -0.16344356400000   -0.09526843420000
C        -2.52707499830000    0.18763559630000    0.59034507540000
C        -1.15197095710000    0.20222185000000    0.69195613300000
H         0.96204239800000    5.73592069370000   -0.37807883970000
H         0.28007007220000    4.36872129770000    0.53625789900000
H         0.42609438130000    4.27403563140000   -1.24200319900000
H         4.51734537230000    3.26783135640000    0.05077773540000
H         5.19620070630000    0.88445263700000    0.20020013660000
H         0.39587484170000    2.15154921970000   -0.24806491840000
H         5.23931722640000   -1.87439516860000    0.31772191560000
H         4.65415890860000   -4.27674352090000    0.37362098820000
H         2.31507775760000   -4.99508573820000    0.27200438450000
H         0.48771966220000   -3.35547321450000    0.08250576530000
H        -0.39892966010000   -2.02612094120000   -1.73677418700000
H        -2.84631509270000   -2.07572340290000   -1.89849321890000
H        -4.97836618260000   -1.39828696590000   -1.23868876500000
H        -3.10497224630000    0.81173205400000    1.25183050430000
H        -0.67239441330000    0.81959322660000    1.43636383090000
$end

$rem
BASIS = 6-31G*
GUI = 2
METHOD = B3LYP
PRINT_ORBITALS false
MOLDEN_FORMAT false
--------------------------------------------------------------

             Standard Nuclear Orientation (Angstroms)
    I     Atom           X                Y                Z
 ----------------------------------------------------------------
    1      C      -0.8224669756    -4.6454679959    -0.3240483669
    2      O      -2.1447930492    -4.1864870108    -0.1962626566
    3      C      -2.3647838321    -2.8445823938    -0.1013005520
    4      C      -3.7136595329    -2.4733296654     0.0232058202
    5      C      -4.0861075576    -1.1527284286     0.1083791650
    6      C      -1.3636567733    -1.8844254336    -0.1240302360
    7      C      -1.7448603409    -0.5538288607    -0.0098332689
    8      C      -3.0992482064    -0.1734521708     0.0880867636
    9      C      -3.1219209928     1.2613881985     0.1307127288
   10      C      -4.1408867715     2.1977034120     0.2434292527
   11      C      -3.8075356191     3.5372311049     0.2811327841
   12      C      -2.4777791765     3.9461586572     0.2254525734
   13      C      -1.4461381569     3.0323614921     0.1133856346
   14      C      -1.7769101885     1.6877128606     0.0470250036
   15      N      -0.9523396187     0.5781738922    -0.0356927247
   16      C       0.4403727065     0.6011049049    -0.1294499435
   17      C       1.0726010295     1.4239412214    -1.0603976664
   18      C       2.4477787755     1.4422733460    -1.1466523841
   19      C       3.2365224126     0.6383650498    -0.3187114169
   20      C       4.6793692893     0.7058103745    -0.4708854619
   21      C       5.6108882345     0.0183340682     0.1742752304
   22      F       5.4439627559    -0.9023126680     1.1170089381
   23      F       6.9144058469     0.1675838517    -0.0554185412
   24      C       2.5945443406    -0.1836394844     0.6108242913
   25      C       1.2190030243    -0.1981829059     0.7063400811
   26      H      -0.8907205751    -5.7308820376    -0.3772451039
   27      H      -0.2126850157    -4.3644377152     0.5411392423
   28      H      -0.3508332047    -4.2683874077    -1.2376778993
   29      H      -4.4476787231    -3.2628090022     0.0377565865
   30      H      -5.1269883280    -0.8794852993     0.1859872394
   31      H      -0.3248327835    -2.1466598949    -0.2420015293
   32      H      -5.1703926951     1.8792761180     0.3054155478
   33      H      -4.5852856965     4.2815301723     0.3657299538
   34      H      -2.2457175958     4.9997451787     0.2750083300
   35      H      -0.4176767357     3.3601176315     0.0923483073
   36      H       0.4769004990     2.0320714253    -1.7240021207
   37      H       2.9249815583     2.0815831073    -1.8748551144
   38      H       5.0540360328     1.4034590783    -1.2061408709
   39      H       3.1694572284    -0.8082891151     1.2743848392
   40      H       0.7360862015    -0.8160781577     1.4481491527
 ----------------------------------------------------------------

    9   -1138.9090049188      4.34e-06  Convergence criterion met
 Total energy in the final basis set =    -1138.9090049188

                    Orbital Energies (a.u.)
 --------------------------------------------------------------

 Alpha MOs
 -- Occupied --
-24.7504 -24.7395 -19.1755 -14.3825 -10.3627 -10.2437 -10.2386 -10.2386
-10.2222 -10.2175 -10.2142 -10.2094 -10.2016 -10.1998 -10.1996 -10.1990
-10.1858 -10.1829 -10.1823 -10.1814 -10.1806 -10.1797 -10.1777 -10.1748
-10.1738  -1.2910  -1.2301  -1.0657  -1.0013  -0.8823  -0.8509  -0.8460
 -0.8143  -0.7828  -0.7667  -0.7537  -0.7510  -0.7332  -0.7174  -0.6910
 -0.6585  -0.6337  -0.6323  -0.6121  -0.6063  -0.5832  -0.5786  -0.5728
 -0.5474  -0.5370  -0.5303  -0.5246  -0.5069  -0.4937  -0.4817  -0.4712
 -0.4697  -0.4617  -0.4575  -0.4491  -0.4465  -0.4418  -0.4396  -0.4360
 -0.4332  -0.4321  -0.4178  -0.4145  -0.4079  -0.3890  -0.3854  -0.3825
 -0.3681  -0.3620  -0.3590  -0.3467  -0.3384  -0.3336  -0.3278  -0.3181
 -0.2987  -0.2675  -0.2610  -0.2513  -0.2352  -0.1966  -0.1939

          Ground-State Mulliken Net Atomic Charges

     Atom                 Charge (a.u.)
  ----------------------------------------
      1 C                    -0.211073
      2 O                    -0.508119
      3 C                     0.382517
      4 C                    -0.192948
      5 C                    -0.192610
      6 C                    -0.268164
      7 C                     0.314385
      8 C                     0.057774
      9 C                     0.061724
     10 C                    -0.197955
     11 C                    -0.145080
     12 C                    -0.140548
     13 C                    -0.178866
     14 C                     0.310433
     15 N                    -0.738889
     16 C                     0.289466
     17 C                    -0.160072
     18 C                    -0.208763
     19 C                     0.203847
     20 C                    -0.299967
     21 C                     0.544827
     22 F                    -0.234697
     23 F                    -0.246689
     24 C                    -0.209167
     25 C                    -0.162803
     26 H                     0.168917
     27 H                     0.147314
     28 H                     0.151381
     29 H                     0.131186
     30 H                     0.132061
     31 H                     0.142378
     32 H                     0.126839
     33 H                     0.120399
     34 H                     0.122794
     35 H                     0.136539
     36 H                     0.155578
     37 H                     0.135510
     38 H                     0.161671
     39 H                     0.144465
     40 H                     0.154406
  ----------------------------------------
  Sum of atomic charges =     0.000000

                    Cartesian Multipole Moments
 -----------------------------------------------------------------
    Charge (ESU x 10^10)
                 0.0000
    Dipole Moment (Debye)
         X       1.7097      Y       0.0080      Z      -0.6905
       Tot       1.8439
    Quadrupole Moments (Debye-Ang)
        XX    -141.9683     XY      -1.5409     YY    -131.2094
        XZ      -3.4897     YZ      -2.6827     ZZ    -142.0661

 Total job time:  124.07s(wall), 123.67s(cpu)
        *  Thank you very much for using Q-Chem.  Have a nice day.  *
