 Q-Chem 5.2, Q-Chem, Inc., Pleasanton, CA (2019)
 Q-Chem 5.2.1 for Intel X86 EM64T Linux

User input:
--------------------------------------------------------------
$molecule
0 1
C        -3.86109821380000   -0.29705509920000    0.13674277690000
C        -2.90112698160000    0.61375151550000    0.03261187680000
C        -1.46621788180000    0.36421515000000   -0.02027537130000
C        -0.89199277320000   -0.90795214120000    0.00419966440000
C         0.48436344100000   -1.05427212800000   -0.03464748160000
C         1.10420335240000   -2.41670159730000    0.01691749290000
C         1.27226389460000    0.10671225700000   -0.10362188920000
C         2.72829363160000    0.04740131950000   -0.15525500260000
C         3.53983638480000    0.98121540750000    0.32436893910000
C         0.59652652870000    1.32912278860000   -0.14369885540000
N        -0.70929683640000    1.46126437930000   -0.10005383780000
H        -4.89905530640000   -0.01336399940000    0.16971330230000
H        -3.66163728390000   -1.35387131620000    0.19435304590000
H        -3.15026371230000    1.66502100960000   -0.01878248430000
H        -1.51900347610000   -1.78453300340000    0.05918671430000
H         0.34285431060000   -3.17837627650000    0.16652617510000
H         1.82631345990000   -2.47824429630000    0.82964366280000
H         1.62678070980000   -2.63237988940000   -0.91518501660000
H         3.14926723740000   -0.83587299940000   -0.61798218610000
H         3.16991184330000    1.86100158510000    0.82330999730000
H         4.61005140220000    0.88966108950000    0.25038653060000
H         1.15150751440000    2.25408017070000   -0.23406831570000
$end

$rem
BASIS = 6-31G*
GUI = 2
METHOD = B3LYP
PRINT_ORBITALS false
MOLDEN_FORMAT false
--------------------------------------------------------------

             Standard Nuclear Orientation (Angstroms)
    I     Atom           X                Y                Z
 ----------------------------------------------------------------
    1      C       3.8791028087    -0.2424108291    -0.1337086676
    2      C       2.9148404300     0.6633141582    -0.0250025835
    3      C       1.4811313247     0.4067318478     0.0267014093
    4      C       0.9129292244    -0.8680001552    -0.0040851648
    5      C      -0.4627168516    -1.0210215907     0.0340905050
    6      C      -1.0761080197    -2.3860945299    -0.0242333021
    7      C      -1.2560961855     0.1358644036     0.1088793051
    8      C      -2.7118256647     0.0694093591     0.1602774681
    9      C      -3.5278083097     1.0017506786    -0.3146556891
   10      C      -0.5861465597     1.3612433673     0.1550155478
   11      N       0.7190342153     1.4997769499     0.1119744106
   12      H       4.9157040799     0.0463482717    -0.1653094267
   13      H       3.6846397703    -1.2998588390    -0.1965732466
   14      H       3.1590045457     1.7154815447     0.0316164556
   15      H       1.5440761095    -1.7413201528    -0.0634635810
   16      H      -0.3111740796    -3.1434042793    -0.1776655314
   17      H      -1.7979721524    -2.4470045104    -0.8372256062
   18      H      -1.5975981639    -2.6088820353     0.9068054002
   19      H      -3.1285857779    -0.8181401749     0.6186174928
   20      H      -3.1620825607     1.8857509957    -0.8092243701
   21      H      -4.5975733907     0.9047669708    -0.2410852797
   22      H      -1.1454910685     2.2831033002     0.2500138494
 ----------------------------------------------------------------

    9    -442.4013646573      2.58e-06  Convergence criterion met
 Total energy in the final basis set =     -442.4013646573

                    Orbital Energies (a.u.)
 --------------------------------------------------------------

 Alpha MOs
 -- Occupied --
-14.3177 -10.2208 -10.2131 -10.2097 -10.1969 -10.1955 -10.1906 -10.1897
-10.1856 -10.1850 -10.1819  -0.9449  -0.8349  -0.8024  -0.7766  -0.7237
 -0.7122  -0.6535  -0.6057  -0.5822  -0.5533  -0.5096  -0.4937  -0.4638
 -0.4495  -0.4480  -0.4358  -0.4158  -0.4016  -0.3977  -0.3941  -0.3719
 -0.3585  -0.3471  -0.3188  -0.2810  -0.2665  -0.2465  -0.2188

          Ground-State Mulliken Net Atomic Charges

     Atom                 Charge (a.u.)
  ----------------------------------------
      1 C                    -0.348572
      2 C                    -0.088713
      3 C                     0.305143
      4 C                    -0.235278
      5 C                     0.155441
      6 C                    -0.535638
      7 C                     0.084311
      8 C                    -0.131525
      9 C                    -0.337214
     10 C                    -0.010776
     11 N                    -0.488590
     12 H                     0.148133
     13 H                     0.141336
     14 H                     0.144784
     15 H                     0.125530
     16 H                     0.161541
     17 H                     0.173672
     18 H                     0.169700
     19 H                     0.133590
     20 H                     0.150546
     21 H                     0.145656
     22 H                     0.136923
  ----------------------------------------
  Sum of atomic charges =     0.000000

                    Cartesian Multipole Moments
 -----------------------------------------------------------------
    Charge (ESU x 10^10)
                 0.0000
    Dipole Moment (Debye)
         X      -1.0277      Y      -2.1533      Z      -0.0831
       Tot       2.3874
    Quadrupole Moments (Debye-Ang)
        XX     -57.8230     XY      -2.1212     YY     -62.8341
        XZ      -0.4879     YZ      -0.9347     ZZ     -67.8257

 Total job time:  24.37s(wall), 24.28s(cpu)
        *  Thank you very much for using Q-Chem.  Have a nice day.  *
