 Q-Chem 5.2, Q-Chem, Inc., Pleasanton, CA (2019)
 Q-Chem 5.2.1 for Intel X86 EM64T Linux

User input:
--------------------------------------------------------------
$molecule
0 1
C         5.52751219920000   -1.22503999320000   -0.00374417280000
C         4.88548728390000   -0.06223304120000   -0.00325391240000
C         3.44347866000000    0.14511966580000   -0.00252726510000
C         2.96330703860000    1.46663416810000   -0.01521553280000
C         1.61800210500000    1.76037806090000   -0.01611387910000
C         0.70569495130000    0.71165799690000   -0.00349176520000
C         1.18442186540000   -0.62138318090000    0.01007784740000
C         2.53570195170000   -0.91164144880000    0.01057618810000
N         0.11090061030000   -1.47716532360000    0.02152410960000
C        -1.05086672310000   -0.74631541840000    0.01529669180000
C        -2.36384975050000   -1.17874879680000    0.02287564330000
C        -3.38452189220000   -0.22927907530000    0.01158685210000
C        -4.76298865020000   -0.70069635330000    0.01609897160000
C        -5.86441961630000    0.03874231360000   -0.04966438810000
C        -3.05552730950000    1.13681672880000   -0.00237533930000
C        -1.74937420700000    1.57191952260000   -0.00804006640000
C        -0.72512839170000    0.63131239420000   -0.00033008870000
H         6.60313418420000   -1.26935942490000   -0.00509039820000
H         5.02010429710000   -2.17441394660000   -0.00373999480000
H         5.46831940910000    0.85111975930000   -0.00470460490000
H         3.68121688970000    2.27445332160000   -0.02490615250000
H         1.27572350850000    2.78431677190000   -0.02623752670000
H         2.87299459580000   -1.93641040710000    0.02160592460000
H         0.16704684320000   -2.48078039760000    0.03212087940000
H        -2.59798661020000   -2.23411345490000    0.03508822530000
H        -4.86542879290000   -1.77816126260000    0.07567180120000
H        -5.84553566850000    1.11270558530000   -0.11679824170000
H        -6.84146851200000   -0.41342253230000   -0.04110604980000
H        -3.84944245620000    1.86660881660000   -0.00557063120000
H        -1.52074632460000    2.62717176870000   -0.01803823190000
$end

$rem
BASIS = 6-31G*
GUI = 2
METHOD = B3LYP
PRINT_ORBITALS false
MOLDEN_FORMAT false
--------------------------------------------------------------

             Standard Nuclear Orientation (Angstroms)
    I     Atom           X                Y                Z
 ----------------------------------------------------------------
    1      C       5.5471105363    -1.1382438736    -0.0185640904
    2      C       4.8876642207     0.0146989145    -0.0055362738
    3      C       3.4426998307     0.2003064259    -0.0020279853
    4      C       2.9426931935     1.5145048861    -0.0005693535
    5      C       1.5931208498     1.7879615415     0.0021861279
    6      C       0.6967023080     0.7255550672     0.0041134014
    7      C       1.1954383232    -0.6001991611     0.0034149944
    8      C       2.5509324730    -0.8700766339     0.0002938633
    9      N       0.1349205283    -1.4721142015     0.0062692623
   10      C      -1.0377143235    -0.7588068729     0.0082341819
   11      C      -2.3440382427    -1.2110078057     0.0117883248
   12      C      -3.3788859194    -0.2769406888     0.0109416782
   13      C      -4.7501013818    -0.7690721318     0.0110446129
   14      C      -5.8625698620    -0.0456414501    -0.0464572472
   15      C      -3.0704895202     1.0940230894     0.0112642318
   16      C      -1.7710338220     1.5487700044     0.0096551914
   17      C      -0.7327482548     0.6236555165     0.0070152999
   18      H       6.6232766239    -1.1663533003    -0.0208204070
   19      H       5.0540434959    -2.0950941137    -0.0283719639
   20      H       5.4566880494     0.9366844921     0.0024139395
   21      H       3.6483624960     2.3330944993    -0.0020280788
   22      H       1.2354701027     2.8066827357     0.0030115846
   23      H       2.9036108405    -1.8897125319     0.0003677322
   24      H       0.2061658438    -2.4748265294     0.0062490969
   25      H      -2.5622636232    -2.2698468375     0.0129570442
   26      H      -4.8362854758    -1.8485251632     0.0592835045
   27      H      -5.8598841202     1.0291327496    -0.1022593369
   28      H      -6.8327003075    -0.5125249741    -0.0422701991
   29      H      -3.8752962362     1.8117770443     0.0160986564
   30      H      -1.5583138408     2.6073903750     0.0107018441
 ----------------------------------------------------------------

    8    -672.2674295162      1.00e-05  Convergence criterion met
 Total energy in the final basis set =     -672.2674295162

                    Orbital Energies (a.u.)
 --------------------------------------------------------------

 Alpha MOs
 -- Occupied --
-14.3764 -10.2233 -10.2229 -10.1927 -10.1920 -10.1870 -10.1866 -10.1865
-10.1862 -10.1856 -10.1852 -10.1849 -10.1841 -10.1784 -10.1775 -10.1758
-10.1758  -0.9881  -0.8558  -0.8513  -0.8028  -0.7809  -0.7542  -0.7457
 -0.7297  -0.7033  -0.6545  -0.6226  -0.6066  -0.5933  -0.5697  -0.5541
 -0.5313  -0.5099  -0.4952  -0.4730  -0.4603  -0.4558  -0.4368  -0.4351
 -0.4345  -0.4313  -0.4213  -0.3984  -0.3898  -0.3670  -0.3629  -0.3605
 -0.3477  -0.3435  -0.3378  -0.3343  -0.3075  -0.2843  -0.2542  -0.2388
 -0.2046  -0.1947

          Ground-State Mulliken Net Atomic Charges

     Atom                 Charge (a.u.)
  ----------------------------------------
      1 C                    -0.353323
      2 C                    -0.119660
      3 C                     0.181298
      4 C                    -0.223948
      5 C                    -0.188881
      6 C                     0.071077
      7 C                     0.357355
      8 C                    -0.252380
      9 N                    -0.825396
     10 C                     0.358682
     11 C                    -0.267518
     12 C                     0.183718
     13 C                    -0.112883
     14 C                    -0.357117
     15 C                    -0.210305
     16 C                    -0.188484
     17 C                     0.068693
     18 H                     0.142172
     19 H                     0.136950
     20 H                     0.126217
     21 H                     0.121882
     22 H                     0.130364
     23 H                     0.119987
     24 H                     0.322515
     25 H                     0.120917
     26 H                     0.122133
     27 H                     0.142748
     28 H                     0.141807
     29 H                     0.120738
     30 H                     0.130641
  ----------------------------------------
  Sum of atomic charges =     0.000000

                    Cartesian Multipole Moments
 -----------------------------------------------------------------
    Charge (ESU x 10^10)
                 0.0000
    Dipole Moment (Debye)
         X       0.0685      Y      -1.4755      Z       0.0023
       Tot       1.4771
    Quadrupole Moments (Debye-Ang)
        XX     -94.0253     XY      -0.0222     YY     -82.8454
        XZ       0.0269     YZ      -0.1058     ZZ    -105.0824

 Total job time:  54.64s(wall), 54.48s(cpu)
        *  Thank you very much for using Q-Chem.  Have a nice day.  *
