 Q-Chem 5.2, Q-Chem, Inc., Pleasanton, CA (2019)
 Q-Chem 5.2.1 for Intel X86 EM64T Linux

User input:
--------------------------------------------------------------
$molecule
0 1
C        -0.38529040270000   -2.87531561590000    0.53275903910000
C        -1.31562648870000   -2.16663448250000   -0.09356271670000
C        -1.40261778680000   -0.70953095540000   -0.10963788540000
C        -2.66440439780000   -0.11555066860000   -0.01337990980000
N        -2.87687468470000    1.18210180920000    0.04572122300000
C        -1.82493621180000    1.98417605200000    0.00015675340000
C        -0.52671859380000    1.52453553270000   -0.12848404110000
C        -0.29205567430000    0.15006535280000   -0.19148846610000
C         1.04442895210000   -0.38511468050000   -0.42220074380000
C         2.18707464800000    0.18130971670000   -0.06901073260000
F         2.35085043830000    1.30848880570000    0.61201620160000
F         3.38009532450000   -0.34518849810000   -0.33206383650000
H        -0.40468754670000   -3.95174088410000    0.53172000830000
H         0.40795299940000   -2.41301922780000    1.09624115140000
H        -2.13190092500000   -2.67503234010000   -0.59186737280000
H        -3.55049682150000   -0.73629022090000    0.03208093020000
H        -2.03926706420000    3.04281392610000    0.05328713890000
H         0.28849528940000    2.22548410490000   -0.20219247230000
H         1.11524362910000   -1.33333087560000   -0.93457119180000
$end

$rem
BASIS = 6-31G*
GUI = 2
METHOD = B3LYP
PRINT_ORBITALS false
MOLDEN_FORMAT false
--------------------------------------------------------------

             Standard Nuclear Orientation (Angstroms)
    I     Atom           X                Y                Z
 ----------------------------------------------------------------
    1      C      -0.3119511994    -2.8411212416     0.5098258916
    2      C      -1.2431970187    -2.1284326553    -0.1105686010
    3      C      -1.3323497465    -0.6713752976    -0.1140662099
    4      C      -2.5950394221    -0.0801225290    -0.0129792299
    5      N      -2.8094511384     1.2166537273     0.0572879522
    6      C      -1.7586953437     2.0206520650     0.0189122365
    7      C      -0.4597669679     1.5640679424    -0.1133861316
    8      C      -0.2230476103     0.1905436207    -0.1882152846
    9      C       1.1142831656    -0.3406377979    -0.4232252339
   10      C       2.2560056608     0.2244066721    -0.0648769971
   11      F       2.4179516310     1.3458971549     0.6259091442
   12      F       3.4498670949    -0.2980265285    -0.3321859335
   13      H      -0.3297485738    -3.9175248896     0.4994756784
   14      H       0.4804763544    -2.3825374798     1.0774742349
   15      H      -2.0586018825    -2.6337138234    -0.6134460380
   16      H      -3.4802187852    -0.7025461543     0.0269004486
   17      H      -1.9746111039     3.0784717779     0.0811419738
   18      H       0.3544211653     2.2668365556    -0.1808358842
   19      H       1.1866231552    -1.2842823879    -0.9437576160
 ----------------------------------------------------------------

    9    -601.5467876487      5.38e-06  Convergence criterion met
 Total energy in the final basis set =     -601.5467876487

                    Orbital Energies (a.u.)
 --------------------------------------------------------------

 Alpha MOs
 -- Occupied --
-24.7504 -24.7427 -14.3254 -10.3662 -10.2251 -10.2211 -10.2199 -10.2095
-10.2082 -10.2036 -10.1977 -10.1929  -1.2931  -1.2324  -0.9502  -0.8521
 -0.8067  -0.7712  -0.7463  -0.6660  -0.6437  -0.6247  -0.5878  -0.5682
 -0.5445  -0.5272  -0.5050  -0.4974  -0.4719  -0.4536  -0.4475  -0.4418
 -0.4297  -0.4275  -0.4076  -0.4017  -0.3892  -0.3600  -0.3221  -0.3064
 -0.2554  -0.2521  -0.2343

          Ground-State Mulliken Net Atomic Charges

     Atom                 Charge (a.u.)
  ----------------------------------------
      1 C                    -0.337711
      2 C                    -0.141308
      3 C                     0.074887
      4 C                    -0.009250
      5 N                    -0.403874
      6 C                     0.038329
      7 C                    -0.196301
      8 C                     0.150495
      9 C                    -0.318200
     10 C                     0.557694
     11 F                    -0.233463
     12 F                    -0.243347
     13 H                     0.150798
     14 H                     0.160025
     15 H                     0.143904
     16 H                     0.140667
     17 H                     0.142334
     18 H                     0.142182
     19 H                     0.182139
  ----------------------------------------
  Sum of atomic charges =     0.000000

                    Cartesian Multipole Moments
 -----------------------------------------------------------------
    Charge (ESU x 10^10)
                 0.0000
    Dipole Moment (Debye)
         X       1.1031      Y      -1.4040      Z      -0.4032
       Tot       1.8304
    Quadrupole Moments (Debye-Ang)
        XX     -74.8735     XY       4.3057     YY     -60.7929
        XZ       0.9475     YZ      -0.1059     ZZ     -67.9983

 Total job time:  23.55s(wall), 23.46s(cpu)
        *  Thank you very much for using Q-Chem.  Have a nice day.  *
