 Q-Chem 5.2, Q-Chem, Inc., Pleasanton, CA (2019)
 Q-Chem 5.2.1 for Intel X86 EM64T Linux

User input:
--------------------------------------------------------------
$molecule
0 1
C        -2.65514997210000    2.66250194410000   -0.24518836340000
C        -2.43865388880000    1.46665540540000    0.28574327620000
C        -1.20370880210000    0.69731826630000    0.13372667900000
C         0.01762550390000    1.36556324210000    0.07697581680000
C         1.22417688360000    0.70271382170000   -0.05583159870000
C         2.54376609150000    1.43314565230000   -0.09207286340000
C         2.47236959640000    2.93658488330000    0.14582948700000
C         1.20430124330000   -0.69803651690000   -0.13003826700000
C         2.43948091810000   -1.46781924830000   -0.27774838470000
C         2.65443111590000   -2.66241951980000    0.25662556480000
C        -0.01715275780000   -1.36621720900000   -0.07428067280000
C        -1.22376290750000   -0.70329336130000    0.05716108060000
C        -2.54363053820000   -1.43343017220000    0.08964463940000
C        -2.47379785870000   -2.93377223060000   -0.16758161890000
H        -3.58063918600000    3.19119420440000   -0.09142314230000
H        -1.92620193760000    3.15269021540000   -0.86885341060000
H        -3.21826148940000    1.00321404050000    0.87660509170000
H         0.00291303220000    2.43977612890000    0.16342282720000
H         3.00882903300000    1.25843348600000   -1.06840076970000
H         3.20179208640000    0.98937900750000    0.66111555780000
H         1.89525351140000    3.42993544100000   -0.63289757260000
H         3.47724437920000    3.35422929260000    0.13550307620000
H         2.02361131420000    3.15625029470000    1.11191155600000
H         3.22085838140000   -1.00581455920000   -0.86735142780000
H         1.92388955310000   -3.15078150890000    0.87988743780000
H         3.58014764830000   -3.19171531820000    0.10645129660000
H        -0.00243286250000   -2.44046934940000   -0.16031216050000
H        -3.20398503970000   -0.98023204160000   -0.65578317070000
H        -3.00514636630000   -1.27047505280000    1.06971422730000
H        -2.02306840700000   -3.14098406880000   -1.13551676560000
H        -3.47922746280000   -3.35022811090000   -0.16507248920000
H        -1.89908722160000   -3.43838357770000    0.60566904040000
$end

$rem
BASIS = 6-31G*
GUI = 2
METHOD = B3LYP
PRINT_ORBITALS false
MOLDEN_FORMAT false
--------------------------------------------------------------

             Standard Nuclear Orientation (Angstroms)
    I     Atom           X                Y                Z
 ----------------------------------------------------------------
    1      C      -1.7743309723    -3.3134992316     0.2664520318
    2      C      -1.9129721680    -2.1088063744    -0.2704852483
    3      C      -0.9518868372    -1.0153567405    -0.1263987060
    4      C       0.4103632766    -1.3028699163    -0.0712598224
    5      C       1.3749138647    -0.3196717631     0.0541871784
    6      C       2.8491273348    -0.6385159629     0.0887239258
    7      C       3.2136178104    -2.0999443204    -0.1423569218
    8      C       0.9522536790     1.0162600921     0.1223606892
    9      C       1.9134253236     2.1101814472     0.2621380113
   10      C       1.7736552535     3.3132172988    -0.2782303643
   11      C      -0.4100902421     1.3036824169     0.0682157809
   12      C      -1.3746725222     0.3204032138    -0.0558650381
   13      C      -2.8490589425     0.6389043592    -0.0866418239
   14      C      -3.2141097557     2.0970175584     0.1637819077
   15      H      -2.5084735960    -4.0873281414     0.1184217616
   16      H      -0.9335936975    -3.5694791676     0.8895434990
   17      H      -2.7944327514    -1.8928687237    -0.8604697952
   18      H       0.7057438507    -2.3361640902    -0.1529686666
   19      H       3.2463175399    -0.3320467623     1.0625517501
   20      H       3.3495663494    -0.0278588281    -0.6688237619
   21      H       2.8050059072    -2.7346231529     0.6406454242
   22      H       4.2962504023    -2.2101373914    -0.1339322837
   23      H       2.8450223254    -2.4447043242    -1.1058035270
   24      H       2.7961635937     1.8961230483     0.8508509887
   25      H       0.9319194936     3.5669912652    -0.9009048012
   26      H       2.5078333371     4.0876708240    -0.1337944609
   27      H      -0.7054759752     2.3370141396     0.1495089106
   28      H      -3.3490265406     0.0185043266     0.6631951142
   29      H      -3.2462504318     0.3446958548    -1.0642756533
   30      H      -2.8400325150     2.4304307064     1.1291285416
   31      H      -4.2969130902     2.2059536097     0.1631816585
   32      H      -2.8110348162     2.7418143435    -0.6137843011
 ----------------------------------------------------------------

    8    -544.2982729513      4.25e-06  Convergence criterion met
 Total energy in the final basis set =     -544.2982729513

                    Orbital Energies (a.u.)
 --------------------------------------------------------------

 Alpha MOs
 -- Occupied --
-10.1845 -10.1845 -10.1838 -10.1837 -10.1832 -10.1832 -10.1828 -10.1827
-10.1757 -10.1757 -10.1733 -10.1733 -10.1725 -10.1725  -0.8653  -0.8114
 -0.7893  -0.7717  -0.7520  -0.7102  -0.7068  -0.6521  -0.6237  -0.6085
 -0.5696  -0.5644  -0.5338  -0.4876  -0.4815  -0.4569  -0.4513  -0.4501
 -0.4386  -0.4319  -0.4203  -0.4087  -0.4016  -0.3807  -0.3707  -0.3693
 -0.3582  -0.3552  -0.3521  -0.3442  -0.3351  -0.3216  -0.3165  -0.2936
 -0.2626  -0.2337  -0.2067

          Ground-State Mulliken Net Atomic Charges

     Atom                 Charge (a.u.)
  ----------------------------------------
      1 C                    -0.338633
      2 C                    -0.130784
      3 C                     0.107612
      4 C                    -0.273942
      5 C                     0.135729
      6 C                    -0.343326
      7 C                    -0.451315
      8 C                     0.107642
      9 C                    -0.130733
     10 C                    -0.338602
     11 C                    -0.273957
     12 C                     0.135730
     13 C                    -0.343336
     14 C                    -0.451246
     15 H                     0.139672
     16 H                     0.142709
     17 H                     0.131391
     18 H                     0.125072
     19 H                     0.150363
     20 H                     0.155962
     21 H                     0.149935
     22 H                     0.145024
     23 H                     0.154584
     24 H                     0.131262
     25 H                     0.142687
     26 H                     0.139655
     27 H                     0.125069
     28 H                     0.155891
     29 H                     0.150376
     30 H                     0.154626
     31 H                     0.145005
     32 H                     0.149877
  ----------------------------------------
  Sum of atomic charges =     0.000000

                    Cartesian Multipole Moments
 -----------------------------------------------------------------
    Charge (ESU x 10^10)
                 0.0000
    Dipole Moment (Debye)
         X       0.0005      Y      -0.0011      Z      -0.0001
       Tot       0.0013
    Quadrupole Moments (Debye-Ang)
        XX     -78.6279     XY      -0.2252     YY     -81.9165
        XZ       2.2811     YZ      -0.9213     ZZ     -87.3570

 Total job time:  43.90s(wall), 43.77s(cpu)
        *  Thank you very much for using Q-Chem.  Have a nice day.  *
