 Q-Chem 5.2, Q-Chem, Inc., Pleasanton, CA (2019)
 Q-Chem 5.2.1 for Intel X86 EM64T Linux

User input:
--------------------------------------------------------------
$molecule
0 1
C         2.71563329770000   -2.62693250520000   -0.15283191380000
C         2.51218180570000   -1.33154348370000    0.05161347620000
C         1.22297955160000   -0.64838935780000    0.02424360990000
C         0.00114200850000   -1.31397939020000   -0.00400368350000
C        -1.22166163540000   -0.65028384000000   -0.02967678680000
C        -2.50936360230000   -1.33635091530000   -0.05937336480000
C        -2.71117617200000   -2.62889279220000    0.16346648370000
C        -1.19857593660000    0.74801655660000   -0.03516123170000
F        -2.34888139230000    1.44053601960000   -0.06481641160000
C        -0.00131829550000    1.44823120630000    0.00066155610000
F        -0.00238674110000    2.78869345490000    0.00290950660000
C         1.19715848600000    0.74990063930000    0.03407418640000
F         2.34602421520000    1.44471523020000    0.06597802940000
H         3.70677936450000   -3.04368614530000   -0.11623580090000
H         1.92045476880000   -3.31856204870000   -0.37197888940000
H         3.35921046680000   -0.68697886620000    0.24400792020000
H         0.00170135770000   -2.39032655460000   -0.00696034460000
H        -3.35603401300000   -0.69656595140000   -0.26876178980000
H        -1.91598754270000   -3.31397725040000    0.40208888870000
H        -3.70069135420000   -3.04925036770000    0.12437244490000
$end

$rem
BASIS = 6-31G*
GUI = 2
METHOD = B3LYP
PRINT_ORBITALS false
MOLDEN_FORMAT false
--------------------------------------------------------------

             Standard Nuclear Orientation (Angstroms)
    I     Atom           X                Y                Z
 ----------------------------------------------------------------
    1      C       2.7155718952    -2.5103180943    -0.1496205509
    2      C       2.5119265475    -1.2149502427     0.0547659590
    3      C       1.2228042908    -0.5317117650     0.0257812897
    4      C       0.0009646269    -1.1972214519    -0.0042132945
    5      C      -1.2217625540    -0.5334459419    -0.0314154353
    6      C      -2.5094659039    -1.2194283530    -0.0629509498
    7      C      -2.7116566870    -2.5119944976     0.1594047650
    8      C      -1.1985832347     0.8648539085    -0.0366379891
    9      F      -2.3488051776     1.5574494982    -0.0677202874
   10      C      -0.0013314660     1.5649884839     0.0009048618
   11      F      -0.0023202010     2.9054504068     0.0033727746
   12      C       1.1970563652     0.8665781867     0.0358082017
   13      F       2.3459211841     1.5613163474     0.0693663694
   14      H       3.7066423087    -2.9271391539    -0.1117650689
   15      H       1.9206450814    -3.2018622022    -0.3699471782
   16      H       3.3587363938    -0.5704698549     0.2484017899
   17      H       0.0014615146    -2.2735681461    -0.0073469771
   18      H      -3.3558154668    -0.5795563961    -0.2733681377
   19      H      -1.9168308314    -3.1971675857     0.3989794338
   20      H      -3.7011445294    -2.9322843292     0.1189152842
 ----------------------------------------------------------------

    9    -684.7311341788      2.92e-06  Convergence criterion met
 Total energy in the final basis set =     -684.7311341788

                    Orbital Energies (a.u.)
 --------------------------------------------------------------

 Alpha MOs
 -- Occupied --
-24.7266 -24.7266 -24.7241 -10.2909 -10.2905 -10.2901 -10.2179 -10.2179
-10.2087 -10.2027 -10.2027 -10.1917 -10.1916  -1.2474  -1.2388  -1.2280
 -0.8930  -0.8199  -0.8020  -0.7460  -0.7438  -0.6622  -0.6561  -0.5975
 -0.5737  -0.5701  -0.5549  -0.5286  -0.5157  -0.5020  -0.4917  -0.4717
 -0.4614  -0.4524  -0.4455  -0.4347  -0.4335  -0.4177  -0.3841  -0.3792
 -0.3775  -0.3753  -0.3524  -0.3254  -0.2876  -0.2426  -0.2297

          Ground-State Mulliken Net Atomic Charges

     Atom                 Charge (a.u.)
  ----------------------------------------
      1 C                    -0.346103
      2 C                    -0.112558
      3 C                     0.114971
      4 C                    -0.262244
      5 C                     0.114299
      6 C                    -0.112628
      7 C                    -0.345757
      8 C                     0.235832
      9 F                    -0.273247
     10 C                     0.262633
     11 F                    -0.272789
     12 C                     0.235579
     13 F                    -0.273323
     14 H                     0.152418
     15 H                     0.145582
     16 H                     0.149635
     17 H                     0.140008
     18 H                     0.149650
     19 H                     0.145628
     20 H                     0.152413
  ----------------------------------------
  Sum of atomic charges =     0.000000

                    Cartesian Multipole Moments
 -----------------------------------------------------------------
    Charge (ESU x 10^10)
                 0.0000
    Dipole Moment (Debye)
         X      -0.0006      Y      -2.5111      Z      -0.0040
       Tot       2.5111
    Quadrupole Moments (Debye-Ang)
        XX     -68.5901     XY       0.0136     YY     -70.6657
        XZ       0.5072     YZ      -0.0366     ZZ     -73.9620

 Total job time:  27.63s(wall), 27.53s(cpu)
        *  Thank you very much for using Q-Chem.  Have a nice day.  *
