 Q-Chem 5.4, Q-Chem, Inc., Pleasanton, CA (2021)
 Q-Chem 5.4.2 for Intel X86 EM64T Linux

User input:
--------------------------------------------------------------
$molecule
0 1
C            0.87096900820000       -4.16686467460000       -0.65906700090000
C            1.35117085820000       -3.15349264590000        0.04791334280000
C            0.86465963950000       -1.77604403600000       -0.04575614500000
C           -0.47812809990000       -1.53816472530000       -0.21122313850000
C           -1.02065211740000       -0.23855319450000       -0.26464098170000
C           -2.46380170750000       -0.08607171890000       -0.42552174720000
C           -3.21979930210000        0.84601577960000        0.13272529660000
F           -2.84475131120000        1.78969402780000        0.97835632000000
F           -4.53572360290000        0.92166455930000       -0.05421922370000
C           -0.14816571470000        0.82223709730000       -0.17697898640000
F           -0.61006755190000        2.08345144780000       -0.29446224320000
C            1.24247697810000        0.64795494840000       -0.01690514950000
C            2.11530488630000        1.75328352010000        0.06364514830000
C            3.46113569080000        1.56408549480000        0.20345582960000
C            3.98411435410000        0.26506687130000        0.25816106570000
C            3.15779289950000       -0.82334859410000        0.18158366160000
C            1.76219230700000       -0.67224812730000        0.05414544420000
H            1.24985589370000       -5.16750181410000       -0.54200518100000
H            0.09663731920000       -4.03297521680000       -1.39578941210000
H            2.15027408310000       -3.32866379460000        0.75545670160000
H           -1.16051476580000       -2.37264831830000       -0.26768642140000
H           -2.97189436600000       -0.81943559460000       -1.03340191530000
H            1.69679704230000        2.74696594200000        0.01177575370000
H            4.12717711280000        2.41129213460000        0.26668471160000
H            5.05059967160000        0.12670315640000        0.35759387750000
H            3.58189731360000       -1.81482620730000        0.20850760570000
$end

$rem
BASIS = 6-31G*
GUI = 2
METHOD = B3LYP
PRINT_ORBITALS false
MOLDEN_FORMAT false
$end
--------------------------------------------------------------

             Standard Nuclear Orientation (Angstroms)
    I     Atom           X                Y                Z
 ----------------------------------------------------------------
    1      C      -1.9677265070    -3.7264006660     0.2370705071
    2      C      -2.1191760798    -2.5470746767    -0.3490959620
    3      C      -1.2465409437    -1.3935949116    -0.1236538133
    4      C       0.1048124718    -1.5829805713     0.0345290676
    5      C       1.0081831792    -0.5156856418     0.2105370361
    6      C       2.4300599638    -0.8153594735     0.3529307321
    7      C       3.4335870583    -0.0950346789    -0.1224899141
    8      F       3.3630856405     1.0017583277    -0.8562174589
    9      F       4.7109397561    -0.4327439738     0.0407592036
   10      C       0.4907408306     0.7588893278     0.2541862531
   11      F       1.3051611980     1.8067898121     0.4917600330
   12      C      -0.8874769196     1.0222374159     0.1091048376
   13      C      -1.3920868737     2.3384330741     0.1644757943
   14      C      -2.7321218986     2.5721983436     0.0369477404
   15      C      -3.6166417081     1.4998161960    -0.1407316490
   16      C      -3.1513839479     0.2138672359    -0.1972113718
   17      C      -1.7750246310    -0.0694800381    -0.0871104310
   18      H      -2.6255272275    -4.5515813164     0.0251541723
   19      H      -1.1951095505    -3.9069801122     0.9655826654
   20      H      -2.9279600161    -2.4014513569    -1.0523248672
   21      H       0.5081889869    -2.5831364331    -0.0121418040
   22      H       2.6921416398    -1.7266088803     0.8691058343
   23      H      -0.6979401197     3.1522191034     0.3099288368
   24      H      -3.1160538237     3.5803116013     0.0778389911
   25      H      -4.6752020638     1.6948279587    -0.2292907810
   26      H      -3.8504411420    -0.5988236721    -0.3175020105
 ----------------------------------------------------------------

    9    -838.3862283340      5.16e-06  Convergence criterion met
 Total energy in the final basis set =     -838.3862283340

                    Orbital Energies (a.u.)
 --------------------------------------------------------------

 Alpha MOs
 -- Occupied --
-24.7385 -24.7335 -24.7123 -10.3575 -10.2737 -10.2116 -10.2050 -10.2043
-10.2043 -10.2012 -10.1969 -10.1951 -10.1939 -10.1936 -10.1930 -10.1926
-10.1847  -1.2837  -1.2256  -1.2210  -0.8903  -0.8459  -0.8161  -0.7886
 -0.7594  -0.7463  -0.7167  -0.6554  -0.6392  -0.6177  -0.6154  -0.5735
 -0.5680  -0.5468  -0.5412  -0.5231  -0.5154  -0.4899  -0.4785  -0.4669
 -0.4645  -0.4496  -0.4421  -0.4379  -0.4320  -0.4296  -0.4202  -0.4135
 -0.3993  -0.3886  -0.3857  -0.3711  -0.3469  -0.3401  -0.3387  -0.3047
 -0.2765  -0.2651  -0.2379  -0.2071

          Ground-State Mulliken Net Atomic Charges

     Atom                 Charge (a.u.)
  ----------------------------------------
      1 C                    -0.335395
      2 C                    -0.132304
      3 C                     0.114106
      4 C                    -0.269061
      5 C                     0.117221
      6 C                    -0.318426
      7 C                     0.567921
      8 F                    -0.228152
      9 F                    -0.247324
     10 C                     0.234507
     11 F                    -0.283800
     12 C                     0.057566
     13 C                    -0.181142
     14 C                    -0.132798
     15 C                    -0.128202
     16 C                    -0.198843
     17 C                     0.083576
     18 H                     0.144417
     19 H                     0.144569
     20 H                     0.140894
     21 H                     0.136718
     22 H                     0.168231
     23 H                     0.146532
     24 H                     0.133999
     25 H                     0.132007
     26 H                     0.133182
  ----------------------------------------
  Sum of atomic charges =     0.000000

                    Cartesian Multipole Moments
 -----------------------------------------------------------------
    Charge (ESU x 10^10)
                 0.0000
    Dipole Moment (Debye)
         X      -1.8186      Y      -1.0463      Z       0.0976
       Tot       2.1004
    Quadrupole Moments (Debye-Ang)
        XX     -90.7401     XY      -3.5423     YY     -86.0830
        XZ       2.7497     YZ      -0.5620     ZZ     -96.4311

 Total job time:  96.31s(wall), 88.04s(cpu)
        *  Thank you very much for using Q-Chem.  Have a nice day.  *
