 Q-Chem 5.2, Q-Chem, Inc., Pleasanton, CA (2019)
 Q-Chem 5.2.1 for Intel X86 EM64T Linux

User input:
--------------------------------------------------------------
$molecule
0 1
C        -1.33511709310000   -3.89366561500000   -0.63875357410000
C        -2.02184268240000   -2.77050702350000   -0.46945249620000
C        -1.46265347250000   -1.44202634360000   -0.24628370870000
C        -2.32749860860000   -0.36198208060000   -0.07068472590000
C        -1.86869105610000    0.93565749480000    0.14715728260000
C        -2.84289202930000    2.00790287740000    0.32026117430000
C        -2.58394338200000    3.29521785710000    0.51484600080000
C        -0.48777388790000    1.15308453120000    0.19048719980000
C         0.36935367810000    0.08970990830000    0.01715365600000
S         2.16362018420000    0.24362740010000    0.05131118960000
C         2.55585182990000    1.99636970980000    0.34373600190000
O         2.64872483760000   -0.51470486990000    1.17320886460000
O         2.66020380820000   -0.11275694040000   -1.25077958910000
C        -0.09050640030000   -1.19251117860000   -0.19885155430000
H        -1.83461541980000   -4.83380604980000   -0.79801395080000
H        -0.25971066290000   -3.92608609820000   -0.62575621150000
H        -3.10428220650000   -2.80488792870000   -0.49173384470000
H        -3.39415426470000   -0.53754386810000   -0.10498096420000
H        -3.87536955220000    1.68407693170000    0.27821919450000
H        -1.58483746650000    3.69252192810000    0.56606272870000
H        -3.37862198570000    4.01157125980000    0.63147465270000
H        -0.10228890400000    2.14405508850000    0.35898081360000
H         2.15075823620000    2.28874947220000    1.30352622090000
H         2.15529308470000    2.58390293270000   -0.47182355300000
H         3.63701955680000    2.06185902710000    0.35730580570000
H         0.63781227890000   -1.97575643610000   -0.32694432590000
$end

$rem
BASIS = 6-31G*
GUI = 2
METHOD = B3LYP
PRINT_ORBITALS false
MOLDEN_FORMAT false
--------------------------------------------------------------

             Standard Nuclear Orientation (Angstroms)
    I     Atom           X                Y                Z
 ----------------------------------------------------------------
    1      C      -2.1219042501    -3.5917295184     0.0039486763
    2      C      -2.5467670787    -2.3342998220    -0.0061630641
    3      C      -1.7094135628    -1.1400693696    -0.0029206862
    4      C      -2.3170917171     0.1153185744     0.0010909517
    5      C      -1.5845130498     1.3007063819     0.0045867216
    6      C      -2.3007148190     2.5718421505     0.0079834179
    7      C      -1.7663876023     3.7868781967    -0.0087302164
    8      C      -0.1883404742     1.2183274563     0.0048609922
    9      C       0.4154380885    -0.0189718967     0.0004418443
   10      S       2.2012973365    -0.2533983423    -0.0003416768
   11      C       2.9686318499     1.3966452923     0.0038161459
   12      O       2.5586024485    -0.9140415518     1.2264151680
   13      O       2.5581894361    -0.9075494081    -1.2306911809
   14      C      -0.3148162051    -1.1889854917    -0.0037189836
   15      H      -2.8158492256    -4.4146253727     0.0009045115
   16      H      -1.0783449133    -3.8535562501     0.0161831587
   17      H      -3.6117685877    -2.1367820386    -0.0167620899
   18      H      -3.3971834543     0.1714813890     0.0012894896
   19      H      -3.3792733555     2.4765111621     0.0242343342
   20      H      -0.7044192054     3.9616754113    -0.0275813730
   21      H      -2.3852540105     4.6673705458    -0.0047158548
   22      H       0.4054696091     2.1163140776     0.0094467307
   23      H       2.6737436178     1.9158851864     0.9061547034
   24      H       2.6698227220     1.9222134121    -0.8935529200
   25      H       4.0386572891     1.2280238580     0.0008135942
   26      H       0.2245799765    -2.1213819470    -0.0079141491
 ----------------------------------------------------------------

    9    -974.9215324326      6.80e-06  Convergence criterion met
 Total energy in the final basis set =     -974.9215324326

                    Orbital Energies (a.u.)
 --------------------------------------------------------------

 Alpha MOs
 -- Occupied --
-89.0898 -19.1301 -19.1300 -10.2293 -10.2268 -10.2176 -10.2161 -10.2152
-10.2096 -10.2069 -10.2064 -10.2017 -10.1963 -10.1915  -8.1199  -6.0840
 -6.0835  -6.0833  -1.1114  -0.9993  -0.8927  -0.8224  -0.8108  -0.7761
 -0.7571  -0.7387  -0.6653  -0.6577  -0.6119  -0.5784  -0.5565  -0.5383
 -0.5062  -0.4983  -0.4775  -0.4718  -0.4714  -0.4602  -0.4414  -0.4343
 -0.4297  -0.4254  -0.4048  -0.3998  -0.3799  -0.3719  -0.3629  -0.3349
 -0.3301  -0.3240  -0.3022  -0.2894  -0.2855  -0.2505  -0.2356

          Ground-State Mulliken Net Atomic Charges

     Atom                 Charge (a.u.)
  ----------------------------------------
      1 C                    -0.346809
      2 C                    -0.109807
      3 C                     0.188248
      4 C                    -0.271837
      5 C                     0.192994
      6 C                    -0.109379
      7 C                    -0.351276
      8 C                    -0.220676
      9 C                    -0.105839
     10 S                     1.061334
     11 C                    -0.651226
     12 O                    -0.514734
     13 O                    -0.514851
     14 C                    -0.207426
     15 H                     0.152380
     16 H                     0.158154
     17 H                     0.131893
     18 H                     0.137281
     19 H                     0.134679
     20 H                     0.142916
     21 H                     0.153195
     22 H                     0.137904
     23 H                     0.203123
     24 H                     0.202925
     25 H                     0.228457
     26 H                     0.178379
  ----------------------------------------
  Sum of atomic charges =     0.000000

                    Cartesian Multipole Moments
 -----------------------------------------------------------------
    Charge (ESU x 10^10)
                 0.0000
    Dipole Moment (Debye)
         X      -2.9867      Y       3.5565      Z       0.0107
       Tot       4.6443
    Quadrupole Moments (Debye-Ang)
        XX     -84.2090     XY      11.8759     YY     -78.7294
        XZ       0.0120     YZ       0.0035     ZZ     -98.1964

 Total job time:  41.33s(wall), 41.20s(cpu)
        *  Thank you very much for using Q-Chem.  Have a nice day.  *
