 Q-Chem 5.2, Q-Chem, Inc., Pleasanton, CA (2019)
 Q-Chem 5.2.1 for Intel X86 EM64T Linux

User input:
--------------------------------------------------------------
$molecule
0 1
C        -4.18212916070000   -0.98059362050000   -0.00122572490000
C        -3.01478477660000   -1.61789825140000   -0.00166200310000
C        -1.73262615390000   -0.96229459830000   -0.00113204190000
C        -0.46897747600000   -1.49541647520000   -0.00241795460000
C         0.43171779920000   -0.40125338650000   -0.00088426850000
C         1.88663921470000   -0.56252090910000   -0.00182437300000
O         2.44534221620000   -1.63248812080000   -0.00716343130000
O         2.55365944440000    0.60759198940000    0.00384395800000
C         3.96938673260000    0.50341314300000    0.00269790140000
C        -0.35792097740000    0.74383821050000    0.00101226000000
C        -0.00277368540000    2.13774290360000    0.00275531200000
C        -0.89649331480000    3.12511209340000    0.00492987840000
O        -1.65513049170000    0.39077083350000    0.00082807020000
H        -5.11633815420000   -1.51318988570000   -0.00171864760000
H        -4.23177766640000    0.09482173810000   -0.00018830090000
H        -2.96429914410000   -2.69736829320000   -0.00249772420000
H        -0.19500798480000   -2.52992044970000   -0.00403586950000
H         4.34925005610000    1.52162795230000    0.02581165390000
H         4.31127731990000   -0.01384015280000   -0.89623591890000
H         4.30982637500000   -0.05411541070000    0.87774220920000
H         1.05753163090000    2.33504548040000    0.00229144570000
H        -1.95452715170000    2.92504958240000    0.00558375650000
H        -0.59415556170000    4.15719310010000    0.00599507540000
$end

$rem
BASIS = 6-31G*
GUI = 2
METHOD = B3LYP
PRINT_ORBITALS false
MOLDEN_FORMAT false
--------------------------------------------------------------

             Standard Nuclear Orientation (Angstroms)
    I     Atom           X                Y                Z
 ----------------------------------------------------------------
    1      C       4.2745805523     0.4251642013     0.0003508468
    2      C       3.2048131272     1.2153839686     0.0011691766
    3      C       1.8453705418     0.7403443576     0.0005449813
    4      C       0.6660183693     1.4404564735     0.0003243644
    5      C      -0.3751847487     0.4790288628    -0.0001362765
    6      C      -1.7946296547     0.8367721638    -0.0006951739
    7      O      -2.2025424689     1.9728195068    -0.0040048815
    8      O      -2.6146666240    -0.2317030561     0.0028241098
    9      C      -4.0030500795     0.0641498077     0.0019504681
   10      C       0.2512942525    -0.7628615266    -0.0004221134
   11      C      -0.2902215457    -2.0954765735    -0.0012632728
   12      C       0.4608317937    -3.1952748387    -0.0009821773
   13      O       1.5844809529    -0.5895924033    -0.0000180938
   14      H       5.2725719429     0.8256869214     0.0008014347
   15      H       4.1774331412    -0.6470044773    -0.0006232698
   16      H       3.3016828862     2.2916831454     0.0023526157
   17      H       0.5353644420     2.5026192744     0.0006539006
   18      H      -4.5179354157    -0.8929468719     0.0231830960
   19      H      -4.2711974877     0.6247832366    -0.8959967936
   20      H      -4.2646340059     0.6611902591     0.8780533889
   21      H      -1.3675121525    -2.1466648046    -0.0020374094
   22      H       1.5362475601    -3.1410436165    -0.0000127490
   23      H       0.0208685595    -4.1766168243    -0.0018282286
 ----------------------------------------------------------------

    9    -612.7131823218      6.66e-06  Convergence criterion met
 Total energy in the final basis set =     -612.7131823218

                    Orbital Energies (a.u.)
 --------------------------------------------------------------

 Alpha MOs
 -- Occupied --
-19.2268 -19.1938 -19.1320 -10.3160 -10.2605 -10.2494 -10.2403 -10.2021
-10.2016 -10.1990 -10.1921 -10.1899 -10.1860  -1.1335  -1.1087  -1.0163
 -0.8273  -0.8222  -0.7844  -0.7424  -0.7153  -0.6426  -0.6295  -0.5964
 -0.5768  -0.5564  -0.5074  -0.4880  -0.4866  -0.4747  -0.4710  -0.4651
 -0.4529  -0.4366  -0.4108  -0.4085  -0.3993  -0.3825  -0.3721  -0.3696
 -0.3532  -0.3267  -0.3034  -0.2957  -0.2758  -0.2756  -0.2047

          Ground-State Mulliken Net Atomic Charges

     Atom                 Charge (a.u.)
  ----------------------------------------
      1 C                    -0.353839
      2 C                    -0.107874
      3 C                     0.329146
      4 C                    -0.222880
      5 C                     0.001490
      6 C                     0.580850
      7 O                    -0.489057
      8 O                    -0.468275
      9 C                    -0.216788
     10 C                     0.293834
     11 C                    -0.110629
     12 C                    -0.345332
     13 O                    -0.491513
     14 H                     0.148298
     15 H                     0.156913
     16 H                     0.145589
     17 H                     0.163999
     18 H                     0.162562
     19 H                     0.170333
     20 H                     0.171136
     21 H                     0.171431
     22 H                     0.160424
     23 H                     0.150182
  ----------------------------------------
  Sum of atomic charges =     0.000000

                    Cartesian Multipole Moments
 -----------------------------------------------------------------
    Charge (ESU x 10^10)
                 0.0000
    Dipole Moment (Debye)
         X      -0.0069      Y      -1.5669      Z       0.0061
       Tot       1.5670
    Quadrupole Moments (Debye-Ang)
        XX     -62.3758     XY       7.0658     YY     -73.2332
        XZ      -0.0160     YZ       0.0258     ZZ     -76.9966

 Total job time:  30.08s(wall), 29.98s(cpu)
        *  Thank you very much for using Q-Chem.  Have a nice day.  *
