 Q-Chem 5.2, Q-Chem, Inc., Pleasanton, CA (2019)
 Q-Chem 5.2.1 for Intel X86 EM64T Linux

User input:
--------------------------------------------------------------
$molecule
0 1
C         2.19542749960000   -2.96760240560000    1.89144120380000
C         1.30847022970000   -2.58298232240000    0.98903605840000
C         0.59801358400000   -1.29319479290000    1.00123176440000
C        -0.78877163130000   -1.31996089710000    1.10830222000000
C        -1.55770002840000   -0.16916219930000    1.15364381570000
C        -3.05340874970000   -0.28123760510000    1.23296973400000
C        -3.70393440070000    0.03534083760000   -0.11847091630000
C        -5.22470111210000   -0.07307190660000   -0.04907334990000
C        -5.92319232750000    0.36488024730000   -1.33727060210000
C        -5.59196704850000   -0.47813991380000   -2.56987400990000
C        -6.00862841990000   -1.93768126020000   -2.43093996630000
C        -0.91210751040000    1.07113319780000    1.05572999630000
C        -1.65998252850000    2.32709177120000    1.09201252710000
C        -1.32921863900000    3.42565060520000    0.42676967440000
C         0.47437224710000    1.09259512580000    0.92887039410000
C         1.24497811800000   -0.05823319880000    0.90508846100000
C         2.72626082000000    0.05426195660000    0.67723479950000
C         3.03771415910000   -0.11206106870000   -0.81501879080000
C         4.53492393440000   -0.09894591760000   -1.12033367810000
C         5.19163561500000    1.25339456640000   -0.84727384870000
C         6.62065142790000    1.34479852370000   -1.38363165460000
C         7.58942062740000    0.41185385990000   -0.66636292790000
H         2.66423782260000   -3.93666887640000    1.85168321840000
H         2.47711527450000   -2.33471914340000    2.71728335790000
H         1.01424027540000   -3.26282451040000    0.19717683890000
H        -1.28007484800000   -2.28180835120000    1.17437662520000
H        -3.44763157630000    0.40041126200000    1.99068174000000
H        -3.32554931410000   -1.29656429680000    1.53018442250000
H        -3.31125185220000   -0.65974199140000   -0.86253606420000
H        -3.42317310910000    1.04553834200000   -0.42516312770000
H        -5.58461088650000    0.56318074350000    0.76429398760000
H        -5.50694113600000   -1.09881828540000    0.19449153160000
H        -5.65320584840000    1.40355037420000   -1.54500781720000
H        -7.00350787120000    0.33204501010000   -1.17294491880000
H        -4.52238162200000   -0.42232391520000   -2.77842974960000
H        -6.11281448230000   -0.04303916010000   -3.42664412300000
H        -5.42629687600000   -2.43947922680000   -1.66267342050000
H        -5.85316150890000   -2.46512537130000   -3.36958155220000
H        -7.06203516940000   -2.00961962470000   -2.16796311670000
H        -2.54835061600000    2.33384104850000    1.71045972440000
H        -0.47662174760000    3.46266647350000   -0.23069682130000
H        -1.91236470580000    4.32817188970000    0.49875883750000
H         0.97171280900000    2.05006159360000    0.86659243420000
H         3.26415884860000   -0.71213996660000    1.23367751890000
H         3.06877562560000    1.03241307310000    1.01671680730000
H         2.54064270800000    0.68264727980000   -1.37679106020000
H         2.61826186710000   -1.06449960800000   -1.14890367680000
H         4.67552884790000   -0.34925056950000   -2.17517679220000
H         5.02198682620000   -0.87433736560000   -0.52649134010000
H         5.20622153140000    1.44764962180000    0.22668871050000
H         4.59160298730000    2.03543122990000   -1.31993991500000
H         6.97097166030000    2.37351613620000   -1.26754115250000
H         6.62080527640000    1.11557032000000   -2.45194312290000
H         7.57325474890000    0.59812310840000    0.40548814270000
H         8.60359985170000    0.57096447680000   -1.02617485740000
H         7.32851787520000   -0.62882255590000   -0.83946246890000
$end

$rem
BASIS = 6-31G*
GUI = 2
METHOD = B3LYP
PRINT_ORBITALS false
MOLDEN_FORMAT false
--------------------------------------------------------------

             Standard Nuclear Orientation (Angstroms)
    I     Atom           X                Y                Z
 ----------------------------------------------------------------
    1      C       2.1072987865     3.3987082421    -1.1520913082
    2      C       1.2063907352     2.7942315555    -0.3958284756
    3      C       0.5635295757     1.5083681235    -0.7147861777
    4      C      -0.8175585624     1.4998667804    -0.8817503126
    5      C      -1.5245464791     0.3543188569    -1.2066078560
    6      C      -3.0197625647     0.4186688677    -1.3338321083
    7      C      -3.7057855815    -0.2052770526    -0.1132333727
    8      C      -5.2262105083    -0.1476559028    -0.2327682243
    9      C      -5.9514439678    -0.8785921723     0.8981220563
   10      C      -5.7121108097    -0.3046006408     2.2956046857
   11      C      -6.1967585409     1.1324840771     2.4475072824
   12      C      -0.8209927118    -0.8505240746    -1.3410515033
   13      C      -1.5019730481    -2.0997826437    -1.6782223974
   14      C      -1.1420422971    -3.3001981037    -1.2443596389
   15      C       0.5587451998    -0.8410744240    -1.1536639623
   16      C       1.2682504100     0.3091659134    -0.8497653867
   17      C       2.7432717361     0.2121597884    -0.5783380602
   18      C       2.9871436485     0.0694435035     0.9288599564
   19      C       4.4699654655     0.0536017492     1.2976617955
   20      C       5.2048547414    -1.1811056659     0.7779579973
   21      C       6.6145551766    -1.3254256709     1.3524464586
   22      C       7.5619420350    -0.2217595763     0.8966469124
   23      H       2.5242574246     4.3556153706    -0.8857684166
   24      H       2.4529783795     2.9685573112    -2.0780396249
   25      H       0.8471362343     3.2769433745     0.5062375938
   26      H      -1.3542162286     2.4325078173    -0.7674067585
   27      H      -3.3487850902    -0.1016002238    -2.2367432607
   28      H      -3.3313753194     1.4618444118    -1.4230936575
   29      H      -3.3784492061     0.3309497929     0.7791142809
   30      H      -3.3862023461    -1.2451081234    -0.0132138089
   31      H      -5.5211207255    -0.6103306600    -1.1787486359
   32      H      -5.5505344377     0.8938406426    -0.2679513328
   33      H      -5.6372865881    -1.9255775942     0.8949997107
   34      H      -7.0247608014    -0.8562742004     0.6915896378
   35      H      -4.6500653163    -0.3592205737     2.5399403965
   36      H      -6.2433074955    -0.9334650397     3.0146383364
   37      H      -5.6110675372     1.8101435070     1.8319681228
   38      H      -6.1052393317     1.4537823602     3.4827883675
   39      H      -7.2413469684     1.2151083487     2.1542395235
   40      H      -2.3639297257    -2.0113885620    -2.3270193762
   41      H      -0.3150842170    -3.4411098762    -0.5684616932
   42      H      -1.6752247638    -4.1900149267    -1.5337191429
   43      H       1.1013535095    -1.7683798949    -1.2704929042
   44      H       3.2628525275     1.1011371199    -0.9334293193
   45      H       3.1481694210    -0.6561419742    -1.0993504844
   46      H       2.5095370862    -0.8466097997     1.2851853507
   47      H       2.5069954617     0.9106514999     1.4352050354
   48      H       4.5562065740     0.0789925701     2.3871726643
   49      H       4.9398240021     0.9572177758     0.9054604280
   50      H       5.2713802006    -1.1412809269    -0.3107714032
   51      H       4.6273461810    -2.0700672864     1.0449126894
   52      H       7.0210626555    -2.2903659202     1.0392321852
   53      H       6.5611803354    -1.3292964654     2.4437626958
   54      H       7.5972899939    -0.1758631887    -0.1898457611
   55      H       8.5680266526    -0.4117363845     1.2641287033
   56      H       7.2418248263     0.7464105389     1.2724296958
 ----------------------------------------------------------------

    8    -858.7985635803      4.18e-06  Convergence criterion met
 Total energy in the final basis set =     -858.7985635803

                    Orbital Energies (a.u.)
 --------------------------------------------------------------

 Alpha MOs
 -- Occupied --
-10.1874 -10.1859 -10.1849 -10.1844 -10.1830 -10.1825 -10.1787 -10.1779
-10.1760 -10.1755 -10.1745 -10.1726 -10.1723 -10.1718 -10.1717 -10.1715
-10.1707 -10.1703 -10.1701 -10.1697 -10.1660 -10.1654  -0.8667  -0.8184
 -0.8046  -0.8004  -0.7819  -0.7698  -0.7595  -0.7394  -0.7131  -0.7079
 -0.6827  -0.6536  -0.6324  -0.6268  -0.6012  -0.5916  -0.5835  -0.5632
 -0.5548  -0.5493  -0.5325  -0.4954  -0.4814  -0.4690  -0.4675  -0.4611
 -0.4552  -0.4475  -0.4391  -0.4346  -0.4295  -0.4231  -0.4168  -0.4138
 -0.4097  -0.3989  -0.3889  -0.3863  -0.3822  -0.3791  -0.3721  -0.3653
 -0.3611  -0.3544  -0.3491  -0.3450  -0.3399  -0.3371  -0.3361  -0.3273
 -0.3204  -0.3169  -0.3147  -0.3116  -0.3087  -0.3038  -0.2982  -0.2867
 -0.2611  -0.2319  -0.2116

          Ground-State Mulliken Net Atomic Charges

     Atom                 Charge (a.u.)
  ----------------------------------------
      1 C                    -0.320276
      2 C                    -0.152509
      3 C                     0.087903
      4 C                    -0.252697
      5 C                     0.129577
      6 C                    -0.356401
      7 C                    -0.260319
      8 C                    -0.254651
      9 C                    -0.251692
     10 C                    -0.252928
     11 C                    -0.443986
     12 C                     0.121058
     13 C                    -0.132773
     14 C                    -0.341108
     15 C                    -0.263082
     16 C                     0.136181
     17 C                    -0.351405
     18 C                    -0.253654
     19 C                    -0.253218
     20 C                    -0.251596
     21 C                    -0.249859
     22 C                    -0.444012
     23 H                     0.141067
     24 H                     0.147154
     25 H                     0.140226
     26 H                     0.117731
     27 H                     0.140347
     28 H                     0.138803
     29 H                     0.139809
     30 H                     0.147039
     31 H                     0.125396
     32 H                     0.131766
     33 H                     0.127582
     34 H                     0.124475
     35 H                     0.137647
     36 H                     0.129792
     37 H                     0.145244
     38 H                     0.142032
     39 H                     0.141300
     40 H                     0.133200
     41 H                     0.143267
     42 H                     0.140009
     43 H                     0.120175
     44 H                     0.143841
     45 H                     0.142084
     46 H                     0.131620
     47 H                     0.134649
     48 H                     0.125952
     49 H                     0.134082
     50 H                     0.132611
     51 H                     0.125100
     52 H                     0.128182
     53 H                     0.129287
     54 H                     0.140486
     55 H                     0.141521
     56 H                     0.147970
  ----------------------------------------
  Sum of atomic charges =     0.000000

                    Cartesian Multipole Moments
 -----------------------------------------------------------------
    Charge (ESU x 10^10)
                 0.0000
    Dipole Moment (Debye)
         X      -0.0695      Y       0.1038      Z       0.2384
       Tot       0.2692
    Quadrupole Moments (Debye-Ang)
        XX    -134.8665     XY       0.7745     YY    -134.0496
        XZ       0.9409     YZ       1.2932     ZZ    -139.7492

 Total job time:  115.07s(wall), 114.76s(cpu)
        *  Thank you very much for using Q-Chem.  Have a nice day.  *
