 Q-Chem 5.2, Q-Chem, Inc., Pleasanton, CA (2019)
 Q-Chem 5.2.1 for Intel X86 EM64T Linux

User input:
--------------------------------------------------------------
$molecule
0 1
C        -3.51138723670000    1.05215678930000   -0.13492903060000
C        -2.90068574560000   -0.10939855480000    0.06376217110000
C        -1.46250760900000   -0.35529714910000    0.04038768980000
C        -1.00590960410000   -1.67523812690000    0.07052841890000
C         0.34543120730000   -1.95610104860000    0.03552151460000
C         1.24733814140000   -0.91208791660000   -0.02093529100000
F         2.56615197550000   -1.20888901130000   -0.05128837030000
C         0.84535010380000    0.42621701060000   -0.03534041900000
C         1.85083306840000    1.48240038410000   -0.08524864470000
C         1.64140563500000    2.77203340090000    0.14599115420000
C        -0.52455626480000    0.67235125000000   -0.00885140700000
H        -4.58430988700000    1.13161023540000   -0.10188957640000
H        -2.97955582960000    1.96417744250000   -0.34502786180000
H        -3.50151817960000   -0.99088399780000    0.25191660840000
H        -1.71768332710000   -2.48640291140000    0.11303104110000
H         0.71028926230000   -2.97126651310000    0.05184209890000
H         2.85184513820000    1.14201829830000   -0.31632438900000
H         0.67544035820000    3.16947139060000    0.40738000300000
H         2.44556625330000    3.48512457280000    0.09140338990000
H        -0.86336426130000    1.69481318430000   -0.03031191350000
$end

$rem
BASIS = 6-31G*
GUI = 2
METHOD = B3LYP
PRINT_ORBITALS false
MOLDEN_FORMAT false
--------------------------------------------------------------

             Standard Nuclear Orientation (Angstroms)
    I     Atom           X                Y                Z
 ----------------------------------------------------------------
    1      C       3.4110438226    -1.1336932460    -0.1337709389
    2      C       2.8440491132     0.0500437735     0.0635333707
    3      C       1.4160565402     0.3494151853     0.0393919745
    4      C       1.0090230462     1.6855054740     0.0680426564
    5      C      -0.3308841587     2.0165645398     0.0322651520
    6      C      -1.2711039843     1.0068778568    -0.0234698487
    7      F      -2.5779136122     1.3526549197    -0.0545977658
    8      C      -0.9193328022    -0.3455097245    -0.0363862546
    9      C      -1.9635127879    -1.3634863996    -0.0855979204
   10      C      -1.8024313606    -2.6598005691     0.1470119679
   11      C       0.4404257567    -0.6425657780    -0.0091547828
   12      H       4.4802434373    -1.2530955933    -0.1002637380
   13      H       2.8456170703    -2.0254456136    -0.3431465320
   14      H       3.4772964545     0.9086850205     0.2510201861
   15      H       1.7505574239     2.4695870582     0.1099884456
   16      H      -0.6576104336     3.0446542759     0.0474347956
   17      H      -2.9510506921    -0.9862220629    -0.3173772029
   18      H      -0.8520548105    -3.0927423967     0.4091489337
   19      H      -2.6326245528    -3.3424416172     0.0928491900
   20      H       0.7408495015    -1.6769800223    -0.0294664427
 ----------------------------------------------------------------

    9    -486.2792690303      2.69e-06  Convergence criterion met
 Total energy in the final basis set =     -486.2792690303

                    Orbital Energies (a.u.)
 --------------------------------------------------------------

 Alpha MOs
 -- Occupied --
-24.7081 -10.2715 -10.2043 -10.1992 -10.1974 -10.1953 -10.1952 -10.1936
-10.1931 -10.1835 -10.1817  -1.2189  -0.8756  -0.8083  -0.7883  -0.7369
 -0.7280  -0.6476  -0.6259  -0.5779  -0.5587  -0.5415  -0.5049  -0.4833
 -0.4624  -0.4573  -0.4507  -0.4385  -0.4202  -0.4089  -0.3874  -0.3767
 -0.3683  -0.3523  -0.3400  -0.3172  -0.2885  -0.2375  -0.2198

          Ground-State Mulliken Net Atomic Charges

     Atom                 Charge (a.u.)
  ----------------------------------------
      1 C                    -0.351345
      2 C                    -0.117997
      3 C                     0.187213
      4 C                    -0.199547
      5 C                    -0.191667
      6 C                     0.303776
      7 F                    -0.291339
      8 C                     0.105567
      9 C                    -0.112402
     10 C                    -0.345737
     11 C                    -0.255121
     12 H                     0.145248
     13 H                     0.143098
     14 H                     0.128107
     15 H                     0.136481
     16 H                     0.145683
     17 H                     0.145395
     18 H                     0.143572
     19 H                     0.148102
     20 H                     0.132910
  ----------------------------------------
  Sum of atomic charges =     0.000000

                    Cartesian Multipole Moments
 -----------------------------------------------------------------
    Charge (ESU x 10^10)
                 0.0000
    Dipole Moment (Debye)
         X       1.0576      Y      -0.1692      Z       0.0282
       Tot       1.0714
    Quadrupole Moments (Debye-Ang)
        XX     -61.0917     XY       2.4734     YY     -56.2380
        XZ       0.6581     YZ       0.3082     ZZ     -67.1512

 Total job time:  22.20s(wall), 22.10s(cpu)
        *  Thank you very much for using Q-Chem.  Have a nice day.  *
