 Q-Chem 5.2, Q-Chem, Inc., Pleasanton, CA (2019)
 Q-Chem 5.2.1 for Intel X86 EM64T Linux

User input:
--------------------------------------------------------------
$molecule
0 1
C        -2.80249971090000    3.28494961750000   -0.08366115280000
C        -2.99279148500000    1.98011086620000    0.06713645870000
C        -1.96726356000000    0.94234743310000    0.04120137190000
C        -2.36903472980000   -0.39408639840000    0.02289880700000
C        -1.41009034750000   -1.38660331000000   -0.00758854700000
F        -1.81112091990000   -2.67381641050000   -0.02955573240000
C        -0.05603228540000   -1.11642177470000   -0.01408723320000
C         0.35795911630000    0.21649857950000    0.01188641020000
C         1.75861112320000    0.61080471820000    0.01365303810000
C         2.83214338520000   -0.16578326570000   -0.00336560680000
F         2.88297606810000   -1.48983558410000   -0.02569792700000
F         4.07287426100000    0.31390779080000    0.00045109860000
C        -0.60369912750000    1.22533750060000    0.03874548940000
H        -3.62755435160000    3.97532224990000   -0.05393809510000
H        -1.83203292220000    3.72011384350000   -0.24924306460000
H        -3.99985515790000    1.60994544670000    0.21207574650000
H        -3.41413844740000   -0.66201816500000    0.02722436260000
H         0.64212158390000   -1.93543825330000   -0.03624741420000
H         1.96104115550000    1.67175966100000    0.03139667320000
H        -0.27574326220000    2.25228663450000    0.06712204670000
$end

$rem
BASIS = 6-31G*
GUI = 2
METHOD = B3LYP
PRINT_ORBITALS false
MOLDEN_FORMAT false
--------------------------------------------------------------

             Standard Nuclear Orientation (Angstroms)
    I     Atom           X                Y                Z
 ----------------------------------------------------------------
    1      C       3.5102870595    -2.3174412568    -0.0910605621
    2      C       3.3274090657    -1.0116181117     0.0603877749
    3      C       2.0520183210    -0.3029821214     0.0370087568
    4      C       2.0629634893     1.0924987490     0.0190146915
    5      C       0.8641625325     1.7763710857    -0.0090659068
    6      F       0.8881893075     3.1243984263    -0.0307602922
    7      C      -0.3598546723     1.1374059589    -0.0134224663
    8      C      -0.3835006263    -0.2581301850     0.0122664689
    9      C      -1.6174284233    -1.0293068887     0.0161626290
   10      C      -2.8656592324    -0.5848325430     0.0015869079
   11      F      -3.2857021105     0.6718733441    -0.0196623255
   12      F      -3.9221376077    -1.3931352143     0.0071920017
   13      C       0.8224745398    -0.9569082389     0.0367018329
   14      H       4.4958584201    -2.7488234777    -0.0632853118
   15      H       2.7004328580    -3.0071922620    -0.2552884046
   16      H       4.1905765876    -0.3739940875     0.2038608007
   17      H       2.9910439285     1.6426871165     0.0217315252
   18      H      -1.2596667482     1.7278486628    -0.0337579643
   19      H      -1.5142606461    -2.1044698400     0.0334595365
   20      H       0.7956369762    -2.0346238055     0.0648746023
 ----------------------------------------------------------------

    9    -684.7492260068      4.18e-06  Convergence criterion met
 Total energy in the final basis set =     -684.7492260068

                    Orbital Energies (a.u.)
 --------------------------------------------------------------

 Alpha MOs
 -- Occupied --
-24.7508 -24.7400 -24.7042 -10.3637 -10.2728 -10.2179 -10.2090 -10.2085
-10.1984 -10.1952 -10.1946 -10.1941 -10.1884  -1.2926  -1.2311  -1.2166
 -0.8808  -0.8229  -0.7923  -0.7488  -0.7371  -0.6560  -0.6421  -0.6160
 -0.5823  -0.5788  -0.5287  -0.5256  -0.5218  -0.5025  -0.4959  -0.4597
 -0.4587  -0.4469  -0.4459  -0.4391  -0.4311  -0.4174  -0.3955  -0.3828
 -0.3772  -0.3703  -0.3490  -0.3258  -0.2822  -0.2343  -0.2281

          Ground-State Mulliken Net Atomic Charges

     Atom                 Charge (a.u.)
  ----------------------------------------
      1 C                    -0.348031
      2 C                    -0.112752
      3 C                     0.181022
      4 C                    -0.274027
      5 C                     0.395841
      6 F                    -0.299251
      7 C                    -0.276418
      8 C                     0.201575
      9 C                    -0.296658
     10 C                     0.548750
     11 F                    -0.230879
     12 F                    -0.245324
     13 C                    -0.257992
     14 H                     0.149018
     15 H                     0.145664
     16 H                     0.132811
     17 H                     0.143472
     18 H                     0.153254
     19 H                     0.162194
     20 H                     0.127730
  ----------------------------------------
  Sum of atomic charges =     0.000000

                    Cartesian Multipole Moments
 -----------------------------------------------------------------
    Charge (ESU x 10^10)
                 0.0000
    Dipole Moment (Debye)
         X       0.9403      Y      -1.6329      Z       0.0277
       Tot       1.8845
    Quadrupole Moments (Debye-Ang)
        XX     -68.5897     XY      -1.5353     YY     -71.0453
        XZ       0.2639     YZ       0.2923     ZZ     -74.2138

 Total job time:  25.68s(wall), 25.58s(cpu)
        *  Thank you very much for using Q-Chem.  Have a nice day.  *
