 Q-Chem 5.2, Q-Chem, Inc., Pleasanton, CA (2019)
 Q-Chem 5.2.1 for Intel X86 EM64T Linux

User input:
--------------------------------------------------------------
$molecule
0 1
C        -4.64560704970000   -1.50444257580000    0.05144280100000
C        -3.35744648500000   -1.82134318480000    0.00554943050000
C        -2.23111468130000   -0.89390822270000   -0.00822109990000
C        -2.38440657780000    0.49107072190000   -0.03806896100000
C        -1.28936871250000    1.34770068600000   -0.04418595430000
C        -1.51881970840000    2.78895045800000   -0.06456124230000
C        -0.61791683340000    3.73451439560000    0.17124729520000
C         0.00041362080000    0.80671953820000   -0.03560532570000
C         0.15255691420000   -0.56370672140000   -0.01094157370000
O         1.40397620480000   -1.21737161120000   -0.00321976570000
C         2.52014674380000   -0.52673856490000   -0.00796912880000
F         2.67498917240000    0.29489787920000    1.04816132880000
F         3.54911505210000   -1.36898988800000    0.01529842810000
F         2.69073469100000    0.25443247670000   -1.09186355470000
C        -0.93916355360000   -1.41563321440000    0.00455345740000
H        -5.40644697820000   -2.26562865700000    0.05933741690000
H        -4.99851998880000   -0.48822688890000    0.08548292200000
H        -3.07519566650000   -2.86616718990000   -0.02072285570000
H        -3.37503105450000    0.91792929460000   -0.05315613040000
H        -2.54077897130000    3.07708819360000   -0.27691627640000
H         0.40849816370000    3.51852641250000    0.41290856800000
H        -0.88330039790000    4.77715370030000    0.14109086260000
H         0.84919898840000    1.46850129070000   -0.06194798150000
H        -0.76641762600000   -2.47952717500000    0.02348693790000
$end

$rem
BASIS = 6-31G*
GUI = 2
METHOD = B3LYP
PRINT_ORBITALS false
MOLDEN_FORMAT false
--------------------------------------------------------------

             Standard Nuclear Orientation (Angstroms)
    I     Atom           X                Y                Z
 ----------------------------------------------------------------
    1      C       4.5272736977     1.5016523117     0.0558171105
    2      C       3.2412579041     1.8279118004     0.0157177044
    3      C       2.1084826018     0.9084866586    -0.0049242808
    4      C       2.2520857178    -0.4771569178    -0.0488105167
    5      C       1.1511108461    -1.3260750582    -0.0611621266
    6      C       1.3704988423    -2.7686071071    -0.0962906393
    7      C       0.4635170934    -3.7101987693     0.1319900330
    8      C      -0.1348609778    -0.7762807796    -0.0445664680
    9      C      -0.2774269729     0.5948546627    -0.0060106490
   10      O      -1.5242553300     1.2570671041     0.0107639094
   11      C      -2.6452059487     0.5742665950     0.0014682953
   12      F      -2.8036535323    -0.2567171580     1.0497213815
   13      F      -3.6682475620     1.4233558506     0.0351987467
   14      F      -2.8233747427    -0.1949090524    -1.0897604959
   15      C       0.8202165560     1.4389996024     0.0156787374
   16      H       5.2933995806     2.2574318387     0.0696883024
   17      H       4.8731825875     0.4827276576     0.0790589692
   18      H       2.9662235653     2.8748759199     0.0003813386
   19      H       3.2396876928    -0.9106993149    -0.0701657611
   20      H       2.3900064322    -3.0616983826    -0.3135934893
   21      H      -0.5608892429    -3.4895119046     0.3778918261
   22      H       0.7215875439    -4.7543014912     0.0909569356
   23      H      -0.9882758569    -1.4318707477    -0.0757187016
   24      H       0.6549067118     2.5038248359     0.0455094125
 ----------------------------------------------------------------

    9    -799.2992431385      2.88e-06  Convergence criterion met
 Total energy in the final basis set =     -799.2992431385

                    Orbital Energies (a.u.)
 --------------------------------------------------------------

 Alpha MOs
 -- Occupied --
-24.7297 -24.7278 -24.7276 -19.2243 -10.4821 -10.2732 -10.2116 -10.2116
-10.2025 -10.2024 -10.2006 -10.1997 -10.1968 -10.1905 -10.1895  -1.3264
 -1.2261  -1.2209  -1.1217  -0.8858  -0.8177  -0.8039  -0.7558  -0.7393
 -0.7047  -0.6563  -0.6416  -0.6206  -0.6020  -0.5963  -0.5674  -0.5460
 -0.5214  -0.4986  -0.4813  -0.4707  -0.4695  -0.4620  -0.4540  -0.4416
 -0.4369  -0.4327  -0.4159  -0.4086  -0.4016  -0.4015  -0.3880  -0.3784
 -0.3745  -0.3645  -0.3514  -0.3283  -0.2857  -0.2399  -0.2332

          Ground-State Mulliken Net Atomic Charges

     Atom                 Charge (a.u.)
  ----------------------------------------
      1 C                    -0.349738
      2 C                    -0.111646
      3 C                     0.182411
      4 C                    -0.255377
      5 C                     0.168503
      6 C                    -0.112915
      7 C                    -0.349596
      8 C                    -0.227726
      9 C                     0.351454
     10 O                    -0.524032
     11 C                     0.977202
     12 F                    -0.277586
     13 F                    -0.253258
     14 F                    -0.276858
     15 C                    -0.249767
     16 H                     0.150483
     17 H                     0.147378
     18 H                     0.133257
     19 H                     0.130312
     20 H                     0.132917
     21 H                     0.151538
     22 H                     0.150279
     23 H                     0.161975
     24 H                     0.150789
  ----------------------------------------
  Sum of atomic charges =     0.000000

                    Cartesian Multipole Moments
 -----------------------------------------------------------------
    Charge (ESU x 10^10)
                 0.0000
    Dipole Moment (Debye)
         X       2.5237      Y      -0.5099      Z      -0.0040
       Tot       2.5746
    Quadrupole Moments (Debye-Ang)
        XX     -81.4086     XY       1.9043     YY     -76.2062
        XZ      -0.4778     YZ       0.0549     ZZ     -88.1880

 Total job time:  37.45s(wall), 37.33s(cpu)
        *  Thank you very much for using Q-Chem.  Have a nice day.  *
