 Q-Chem 5.2, Q-Chem, Inc., Pleasanton, CA (2019)
 Q-Chem 5.2.1 for Intel X86 EM64T Linux

User input:
--------------------------------------------------------------
$molecule
0 1
C         1.28529894040000    3.42843060400000    0.81398288940000
C         1.57656682420000    2.39004609030000    0.04258561470000
C         0.79892289840000    1.15383297050000    0.00909047410000
C        -0.58711423460000    1.20696056680000    0.12276194750000
C        -1.39352850950000    0.07931836820000    0.03292359320000
C        -2.85181880260000    0.34493988430000    0.19200541230000
O        -3.29126067460000    1.17631881140000    0.94702978520000
O        -3.63020179570000   -0.38100903630000   -0.62123555670000
C        -5.02496953110000   -0.12554672590000   -0.53510403330000
C        -0.81333550700000   -1.18780843360000   -0.15174174360000
C        -1.59755689830000   -2.41920471610000   -0.19740125440000
C        -1.14747719620000   -3.60910062050000    0.18141485090000
C         0.57351440360000   -1.23937035410000   -0.26397497470000
C         1.37815026840000   -0.11018403950000   -0.18620779170000
C         2.84105926600000   -0.35707847970000   -0.28197383730000
O         3.32426218460000   -1.31338879720000   -0.83773360970000
O         3.57662132940000    0.56417163220000    0.35426392280000
C         4.98074538250000    0.35705614580000    0.33673773870000
H         1.87856454660000    4.32633899190000    0.79739187370000
H         0.46096849020000    3.41199153770000    1.50713352380000
H         2.43729471140000    2.42815208030000   -0.60998405540000
H        -1.06822776870000    2.16324528630000    0.26406186250000
H        -5.49527302460000   -0.74772842350000   -1.29222960500000
H        -5.22876447530000    0.93039330230000   -0.72329786910000
H        -5.39603134420000   -0.38204813680000    0.45938333620000
H        -2.61341751050000   -2.32035495940000   -0.54710729380000
H        -0.15426990460000   -3.75716540070000    0.57068174630000
H        -1.77165800530000   -4.48466637340000    0.12999300770000
H         1.06143816860000   -2.18711614880000   -0.43415032900000
H         5.41446785430000    1.17389689240000    0.90761824870000
H         5.35356625910000    0.36291028050000   -0.68986773210000
H         5.22805920990000   -0.60431032110000    0.79169585090000
$end

$rem
BASIS = 6-31G*
GUI = 2
METHOD = B3LYP
PRINT_ORBITALS false
MOLDEN_FORMAT false
--------------------------------------------------------------

             Standard Nuclear Orientation (Angstroms)
    I     Atom           X                Y                Z
 ----------------------------------------------------------------
    1      C      -1.7564605907    -3.2984317410     0.2960048416
    2      C      -1.8853764302    -2.1300066140    -0.3174253197
    3      C      -0.9470153722    -1.0205513234    -0.1668850914
    4      C       0.4158463356    -1.2794769721    -0.0554932006
    5      C       1.3694056628    -0.2722955418     0.0236397049
    6      C       2.7739568016    -0.7559266209     0.1493754266
    7      O       3.0780543585    -1.7394955878     0.7774507774
    8      O       3.6632799299    -0.0347479625    -0.5457853528
    9      C       5.0080906553    -0.4892198537    -0.4910488931
   10      C       0.9707582921     1.0758197030     0.0225913593
   11      C       1.9152832273     2.1813958665     0.1604274202
   12      C       1.6211305084     3.3550617509     0.7062371059
   13      C      -0.3931558884     1.3331162238    -0.0876094260
   14      C      -1.3448642199     0.3259094716    -0.1789010069
   15      C      -2.7580896287     0.7827347896    -0.2447440646
   16      O      -3.0935532578     1.8661602146    -0.6577052135
   17      O      -3.6270505154    -0.1103321663     0.2470792722
   18      C      -4.9893669377     0.2881971902     0.2531345228
   19      H      -2.4651791719    -4.0944893937     0.1460415107
   20      H      -0.9548788164    -3.4951265182     0.9881222881
   21      H      -2.7269448472    -1.9553671243    -0.9727232555
   22      H       0.7594906727    -2.3031060273    -0.0525793779
   23      H       5.5768340702     0.1645605057    -1.1472780770
   24      H       5.0717136680    -1.5251027892    -0.8299549249
   25      H       5.3857473502    -0.4315769253     0.5319553516
   26      H       2.9167565508     1.9950544009    -0.1950531169
   27      H       0.6477767503     3.5808444325     1.1081292075
   28      H       2.3591285458     4.1347337610     0.7858092709
   29      H      -0.7439872915     2.3534571696    -0.1203664706
   30      H      -5.5436133198    -0.5346579034     0.6969464057
   31      H      -5.3340549036     0.4810531732    -0.7651705619
   32      H      -5.1154878696     1.1990892834     0.8419856092
 ----------------------------------------------------------------

    9    -842.7870312077      6.48e-06  Convergence criterion met
 Total energy in the final basis set =     -842.7870312077

                    Orbital Energies (a.u.)
 --------------------------------------------------------------

 Alpha MOs
 -- Occupied --
-19.2010 -19.1975 -19.1391 -19.1360 -10.3200 -10.3172 -10.2448 -10.2427
-10.2131 -10.2115 -10.2111 -10.2106 -10.1989 -10.1984 -10.1932 -10.1905
-10.1844 -10.1823  -1.1172  -1.1142  -1.0235  -1.0205  -0.8845  -0.8215
 -0.7895  -0.7749  -0.7471  -0.7312  -0.7179  -0.6533  -0.6423  -0.5949
 -0.5800  -0.5729  -0.5648  -0.5245  -0.5165  -0.5077  -0.4901  -0.4870
 -0.4771  -0.4700  -0.4524  -0.4521  -0.4448  -0.4409  -0.4238  -0.4197
 -0.4078  -0.4060  -0.4006  -0.3790  -0.3732  -0.3683  -0.3579  -0.3525
 -0.3403  -0.3150  -0.3073  -0.3043  -0.2876  -0.2783  -0.2710  -0.2589
 -0.2250

          Ground-State Mulliken Net Atomic Charges

     Atom                 Charge (a.u.)
  ----------------------------------------
      1 C                    -0.342966
      2 C                    -0.097068
      3 C                     0.117694
      4 C                    -0.240825
      5 C                     0.051835
      6 C                     0.535939
      7 O                    -0.473510
      8 O                    -0.441061
      9 C                    -0.221270
     10 C                     0.132500
     11 C                    -0.132564
     12 C                    -0.335136
     13 C                    -0.254678
     14 C                     0.046307
     15 C                     0.550253
     16 O                    -0.481712
     17 O                    -0.444036
     18 C                    -0.220432
     19 H                     0.144673
     20 H                     0.153512
     21 H                     0.142261
     22 H                     0.160572
     23 H                     0.167211
     24 H                     0.174197
     25 H                     0.171768
     26 H                     0.164277
     27 H                     0.149713
     28 H                     0.146607
     29 H                     0.166320
     30 H                     0.167638
     31 H                     0.169731
     32 H                     0.172251
  ----------------------------------------
  Sum of atomic charges =     0.000000

                    Cartesian Multipole Moments
 -----------------------------------------------------------------
    Charge (ESU x 10^10)
                -0.0000
    Dipole Moment (Debye)
         X       0.1259      Y      -0.2897      Z      -0.2575
       Tot       0.4075
    Quadrupole Moments (Debye-Ang)
        XX     -79.9343     XY      10.0576     YY    -104.6891
        XZ      -6.2356     YZ       6.1433     ZZ    -105.9794

 Total job time:  63.66s(wall), 63.48s(cpu)
        *  Thank you very much for using Q-Chem.  Have a nice day.  *
