 Q-Chem 5.2, Q-Chem, Inc., Pleasanton, CA (2019)
 Q-Chem 5.2.1 for Intel X86 EM64T Linux

User input:
--------------------------------------------------------------
$molecule
0 1
C        -4.26258496690000   -4.33032263640000   -0.09149909100000
C        -3.30121367740000   -3.17900441390000   -0.09431910730000
C        -3.74902085240000   -1.87420058940000    0.00831495020000
C        -2.82678967620000   -0.83589108040000    0.00931628840000
C        -2.95502250940000    0.59336752070000    0.07224206430000
C        -4.04458740740000    1.44601263760000    0.19183246860000
C        -3.83357919800000    2.81172293600000    0.25483867000000
C        -4.98268580690000    3.76811814270000    0.37616226760000
C        -2.52710920990000    3.30990664430000    0.21563106730000
C        -1.42665405660000    2.48497282320000    0.09723398520000
C        -1.64610681320000    1.11819497120000    0.00509460120000
N        -0.73871033990000    0.07749210340000   -0.08682109030000
C         0.64755229020000    0.20486854560000   -0.17344820200000
C         1.48098982720000   -0.56369383000000    0.63837069360000
C         2.85171546610000   -0.44464597140000    0.55030497680000
C         3.43424676600000    0.45279000010000   -0.34820024900000
C         4.86838127230000    0.63031635750000   -0.49184242650000
C         5.84679614930000    0.00353518370000    0.14574533140000
F         5.74754148150000   -0.94166593960000    1.07365532940000
F         7.13664709450000    0.25477990080000   -0.07574259890000
C         2.59060350870000    1.22312021800000   -1.15368356180000
C         1.22048919210000    1.10207537760000   -1.07406893970000
C        -1.44548289600000   -1.11242739320000   -0.08296746240000
C        -0.99251699030000   -2.41706592860000   -0.21502344520000
C        -1.93025954440000   -3.43001479850000   -0.21325955600000
H        -5.28952887600000   -3.97924640320000   -0.03148063160000
H        -4.06972749330000   -4.98404078720000    0.75871526310000
H        -4.15013639290000   -4.92334766000000   -0.99840792060000
H        -4.80510692490000   -1.65991696990000    0.08132901840000
H        -5.04501650830000    1.04190668740000    0.24073218890000
H        -5.92824962970000    3.23480229980000    0.43035819360000
H        -5.01165609690000    4.43817562080000   -0.48268897090000
H        -4.87679797420000    4.38005322150000    1.27122416110000
H        -2.37789823280000    4.37791500140000    0.28548170810000
H        -0.42853322360000    2.89631889490000    0.09202597630000
H         1.04350264540000   -1.24241710340000    1.35457845830000
H         3.46913238040000   -1.04841650500000    1.19468895150000
H         5.19246484130000    1.36709909630000   -1.21291438600000
H         3.02139591780000    1.91828689280000   -1.85940492000000
H         0.58393878780000    1.68555507530000   -1.72173658860000
H         0.05753226060000   -2.63953154070000   -0.33007132440000
H        -1.59782991380000   -4.45350101470000   -0.31150713010000
$end

$rem
BASIS = 6-31G*
GUI = 2
METHOD = B3LYP
PRINT_ORBITALS false
MOLDEN_FORMAT false
--------------------------------------------------------------

             Standard Nuclear Orientation (Angstroms)
    I     Atom           X                Y                Z
 ----------------------------------------------------------------
    1      C      -4.1529253339    -4.3206866757    -0.1032933666
    2      C      -3.1880176462    -3.1723280372    -0.1018970171
    3      C      -3.6322568427    -1.8661548812    -0.0011931990
    4      C      -2.7068526387    -0.8306841712     0.0038515628
    5      C      -2.8309663624     0.5989613814     0.0662441831
    6      C      -3.9184175258     1.4549499067     0.1810955595
    7      C      -3.7034906605     2.8200050145     0.2450475751
    8      C      -4.8501714448     3.7799260940     0.3613742933
    9      C      -2.3953373808     3.3141719791     0.2115500977
   10      C      -1.2969161722     2.4858611479     0.0979400707
   11      C      -1.5201636305     1.1197645992     0.0048182846
   12      N      -0.6155769144     0.0762788390    -0.0831570210
   13      C       0.7714353517     0.1993953543    -0.1637323975
   14      C       1.5989572335    -0.5717288541     0.6517007162
   15      C       2.9704134145    -0.4568931321     0.5696188007
   16      C       3.5596144415     0.4387534555    -0.3263192658
   17      C       4.9949007724     0.6118728560    -0.4636993464
   18      C       5.9685938043    -0.0179153669     0.1781395229
   19      F       5.8623874549    -0.9628120845     1.1055898027
   20      F       7.2601648090     0.2293658330    -0.0377137144
   21      C       2.7218647735     1.2116768242    -1.1354613530
   22      C       1.3510506437     1.0948422973    -1.0618278221
   23      C      -1.3260126185    -1.1114632444    -0.0824096372
   24      C      -0.8764858828    -2.4174868040    -0.2125125890
   25      C      -1.8173353805    -3.4275493453    -0.2148593505
   26      H      -5.1790377017    -3.9664567675    -0.0477495977
   27      H      -3.9657890267    -4.9749989949     0.7477420411
   28      H      -4.0383435777    -4.9140495001    -1.0097141108
   29      H      -4.6879879994    -1.6486274617     0.0672163236
   30      H      -4.9202874820     1.0539197812     0.2256221465
   31      H      -5.7975970503     3.2495180634     0.4114339865
   32      H      -4.8733350100     4.4500741073    -0.4975825397
   33      H      -4.7463101057     4.3915280306     1.2569012110
   34      H      -2.2431515134     4.3817164083     0.2820712427
   35      H      -0.2975228399     2.8941382158     0.0970948443
   36      H       1.1562657249    -1.2491084844     1.3659800334
   37      H       3.5831546784    -1.0625615626     1.2166791579
   38      H       5.3243899123     1.3476601780    -1.1833365175
   39      H       3.1578663778     1.9055202933    -1.8392832640
   40      H       0.7191281398     1.6802788003    -1.7122556876
   41      H       0.1733667991    -2.6431773983    -0.3229820165
   42      H      -1.4876267887    -4.4520517055    -0.3116748359
 ----------------------------------------------------------------

    9   -1103.0207223341      4.20e-06  Convergence criterion met
 Total energy in the final basis set =    -1103.0207223341

                    Orbital Energies (a.u.)
 --------------------------------------------------------------

 Alpha MOs
 -- Occupied --
-24.7479 -24.7370 -14.3803 -10.3601 -10.2362 -10.2163 -10.2162 -10.2113
-10.2070 -10.1991 -10.1970 -10.1968 -10.1961 -10.1829 -10.1827 -10.1824
-10.1822 -10.1803 -10.1799 -10.1785 -10.1784 -10.1783 -10.1781 -10.1743
-10.1741  -1.2884  -1.2274  -0.9989  -0.8801  -0.8520  -0.8493  -0.8149
 -0.7857  -0.7724  -0.7602  -0.7545  -0.7366  -0.7197  -0.6856  -0.6838
 -0.6453  -0.6311  -0.6277  -0.6142  -0.5835  -0.5788  -0.5752  -0.5683
 -0.5432  -0.5331  -0.5220  -0.5155  -0.4899  -0.4759  -0.4714  -0.4611
 -0.4520  -0.4474  -0.4440  -0.4397  -0.4350  -0.4330  -0.4288  -0.4270
 -0.4185  -0.4160  -0.4157  -0.4099  -0.4061  -0.3865  -0.3849  -0.3777
 -0.3741  -0.3583  -0.3547  -0.3514  -0.3410  -0.3333  -0.3271  -0.3261
 -0.2966  -0.2745  -0.2646  -0.2436  -0.2316  -0.2068  -0.1885

          Ground-State Mulliken Net Atomic Charges

     Atom                 Charge (a.u.)
  ----------------------------------------
      1 C                    -0.529958
      2 C                     0.170851
      3 C                    -0.260859
      4 C                     0.066842
      5 C                     0.066335
      6 C                    -0.261161
      7 C                     0.171395
      8 C                    -0.530153
      9 C                    -0.191205
     10 C                    -0.173559
     11 C                     0.308140
     12 N                    -0.738081
     13 C                     0.293357
     14 C                    -0.162676
     15 C                    -0.208912
     16 C                     0.204132
     17 C                    -0.299686
     18 C                     0.544070
     19 F                    -0.234676
     20 F                    -0.247701
     21 C                    -0.208974
     22 C                    -0.162199
     23 C                     0.307637
     24 C                    -0.173344
     25 C                    -0.191061
     26 H                     0.152356
     27 H                     0.159220
     28 H                     0.158688
     29 H                     0.121353
     30 H                     0.121382
     31 H                     0.152480
     32 H                     0.159002
     33 H                     0.158776
     34 H                     0.117040
     35 H                     0.137753
     36 H                     0.154161
     37 H                     0.144635
     38 H                     0.160760
     39 H                     0.134187
     40 H                     0.153662
     41 H                     0.138571
     42 H                     0.117420
  ----------------------------------------
  Sum of atomic charges =     0.000000

                    Cartesian Multipole Moments
 -----------------------------------------------------------------
    Charge (ESU x 10^10)
                 0.0000
    Dipole Moment (Debye)
         X       0.0920      Y       0.5145      Z      -0.5137
       Tot       0.7328
    Quadrupole Moments (Debye-Ang)
        XX    -139.3066     XY       2.4978     YY    -131.5448
        XZ      -3.2013     YZ      -2.9668     ZZ    -143.4082

 Total job time:  126.32s(wall), 125.82s(cpu)
        *  Thank you very much for using Q-Chem.  Have a nice day.  *
