 Q-Chem 5.2, Q-Chem, Inc., Pleasanton, CA (2019)
 Q-Chem 5.2.1 for Intel X86 EM64T Linux

User input:
--------------------------------------------------------------
$molecule
0 1
C         5.57257161210000   -0.32336245520000   -0.28443306910000
C         4.35457014780000   -0.25761469850000   -0.81820248030000
C         3.12564210850000   -0.18378983690000   -0.07679142860000
C         2.90857913940000   -0.16681764740000    1.28049627750000
C         1.55810808640000   -0.08685239070000    1.63140425800000
C         0.71160593610000   -0.04079928940000    0.54532268540000
C        -0.71145177400000    0.04291877490000    0.54534989650000
C        -1.55744033400000    0.09686356460000    1.63148203500000
C        -2.90802687550000    0.17526332450000    1.28063782850000
C        -3.12567879560000    0.18311989140000   -0.07664399300000
C        -4.35483088940000    0.25306191280000   -0.81804175460000
C        -5.57251005300000    0.32486074910000   -0.28449422440000
S        -1.61661913570000    0.09138975910000   -0.93622189810000
S         1.61614103460000   -0.09851560010000   -0.93625944090000
H         6.45088691790000   -0.37639772950000   -0.90287531270000
H         5.73323182780000   -0.32624731110000    0.77959364790000
H         4.23896065330000   -0.25688365880000   -1.89444375830000
H         3.70279319250000   -0.21118755330000    2.00344778660000
H         1.20874087790000   -0.06323030160000    2.64770537750000
H        -1.20762196420000    0.07997066350000    2.64778408890000
H        -3.70193425350000    0.22485154010000    2.00362016080000
H        -4.23966842150000    0.24418513980000   -1.89421217690000
H        -5.73287266340000    0.33630303130000    0.77950247690000
H        -6.45087345140000    0.37447833150000   -0.90312912850000
$end

$rem
BASIS = 6-31G*
GUI = 2
METHOD = B3LYP
PRINT_ORBITALS false
MOLDEN_FORMAT false
--------------------------------------------------------------

             Standard Nuclear Orientation (Angstroms)
    I     Atom           X                Y                Z
 ----------------------------------------------------------------
    1      C       5.5819464714     0.3075809428     0.0033047789
    2      C       4.3621872280     0.8413727082    -0.0004178738
    3      C       3.1310407842     0.0999667222    -0.0008437203
    4      C       2.9133489164    -1.2573263712    -0.0009636258
    5      C       1.5605106683    -1.6082274640    -0.0010888211
    6      C       0.7127703272    -0.5221352637    -0.0010023599
    7      C      -0.7127477153    -0.5221553928    -0.0004814579
    8      C      -1.5604492887    -1.6082911230     0.0004799775
    9      C      -2.9133071441    -1.2574386251     0.0010573557
   10      C      -3.1310382429     0.0998531561     0.0005922765
   11      C      -4.3621726226     0.8412608036     0.0010781920
   12      C      -5.5819698413     0.3077216027    -0.0000406767
   13      S      -1.6191919505     0.9594285882    -0.0001246076
   14      S       1.6191411921     0.9594491478    -0.0010315271
   15      H       6.4618637274     0.9260199829     0.0036237033
   16      H       5.7424946517    -0.7564622196     0.0063563627
   17      H       4.2467387548     1.9176285387    -0.0029507471
   18      H       3.7087942870    -1.9802856494    -0.0012457175
   19      H       1.2103540730    -2.6245314362    -0.0011878241
   20      H      -1.2102475420    -2.6246015061     0.0007418295
   21      H      -3.7087598146    -1.9804225341     0.0018850873
   22      H      -4.2466817619     1.9174318047     0.0024222505
   23      H      -5.7427334535    -0.7562752137    -0.0014222129
   24      H      -6.4617280304     0.9263642810     0.0002311534
 ----------------------------------------------------------------

    9   -1259.6145329813      3.70e-06  Convergence criterion met
 Total energy in the final basis set =    -1259.6145329813

                    Orbital Energies (a.u.)
 --------------------------------------------------------------

 Alpha MOs
 -- Occupied --
-88.9084 -88.9084 -10.2276 -10.2272 -10.2201 -10.2201 -10.2000 -10.2000
-10.1939 -10.1939 -10.1918 -10.1918 -10.1832 -10.1832  -7.9703  -7.9703
 -5.9342  -5.9342  -5.9307  -5.9307  -5.9272  -5.9272  -0.9030  -0.8818
 -0.8068  -0.7876  -0.7529  -0.7392  -0.7356  -0.6886  -0.6249  -0.6044
 -0.5973  -0.5440  -0.5386  -0.5129  -0.5071  -0.4904  -0.4638  -0.4356
 -0.4300  -0.4147  -0.4145  -0.4098  -0.3841  -0.3819  -0.3659  -0.3644
 -0.3614  -0.3569  -0.3368  -0.3229  -0.2903  -0.2625  -0.2527  -0.2382
 -0.1844

          Ground-State Mulliken Net Atomic Charges

     Atom                 Charge (a.u.)
  ----------------------------------------
      1 C                    -0.341883
      2 C                    -0.092466
      3 C                    -0.120336
      4 C                    -0.133481
      5 C                    -0.109685
      6 C                    -0.162979
      7 C                    -0.162981
      8 C                    -0.109690
      9 C                    -0.133488
     10 C                    -0.120327
     11 C                    -0.092453
     12 C                    -0.341875
     13 S                     0.252353
     14 S                     0.252351
     15 H                     0.147663
     16 H                     0.142039
     17 H                     0.138508
     18 H                     0.140300
     19 H                     0.139971
     20 H                     0.139974
     21 H                     0.140303
     22 H                     0.138496
     23 H                     0.142030
     24 H                     0.147658
  ----------------------------------------
  Sum of atomic charges =     0.000000

                    Cartesian Multipole Moments
 -----------------------------------------------------------------
    Charge (ESU x 10^10)
                -0.0000
    Dipole Moment (Debye)
         X       0.0002      Y      -1.1933      Z       0.0011
       Tot       1.1933
    Quadrupole Moments (Debye-Ang)
        XX     -82.2410     XY      -0.0002     YY     -86.2970
        XZ       0.0025     YZ      -0.0037     ZZ    -101.8618

 Total job time:  35.36s(wall), 35.15s(cpu)
        *  Thank you very much for using Q-Chem.  Have a nice day.  *
