 Q-Chem 5.2, Q-Chem, Inc., Pleasanton, CA (2019)
 Q-Chem 5.2.1 for Intel X86 EM64T Linux

User input:
--------------------------------------------------------------
$molecule
0 1
C        -4.39848386580000   -1.83985234500000    0.02331139490000
C        -3.12125611320000   -1.88271422410000   -0.33553526050000
C        -2.13751614630000   -0.81713336460000   -0.17851281000000
C        -2.47169240870000    0.46878459150000    0.25252703210000
C        -1.50377243840000    1.44491035990000    0.37062073110000
C        -0.18612048920000    1.14261017370000    0.07825117800000
F         0.72753541140000    2.12823262940000    0.15291252820000
C         0.19805270090000   -0.13178419810000   -0.33711626680000
C         1.58041730670000   -0.48604763030000   -0.65024403220000
C         2.65720694300000   -0.06479195310000   -0.00618629080000
F         2.70488684250000    0.70857644550000    1.06365565790000
F         3.89197884090000   -0.43260657140000   -0.33853466990000
C        -0.80390017240000   -1.08769424280000   -0.47676213850000
H        -5.04908515660000   -2.68327920450000   -0.13033958440000
H        -4.84774997490000   -0.97802096560000    0.48566200900000
H        -2.73271498590000   -2.78899058810000   -0.78326509740000
H        -3.49589382080000    0.71466636210000    0.48087346790000
H        -1.75295536980000    2.44717035980000    0.68189598510000
H         1.74203283870000   -1.17852426710000   -1.46240512930000
H        -0.52706030580000   -2.07698043020000   -0.81187823230000
$end

$rem
BASIS = 6-31G*
GUI = 2
METHOD = B3LYP
PRINT_ORBITALS false
MOLDEN_FORMAT false
--------------------------------------------------------------

             Standard Nuclear Orientation (Angstroms)
    I     Atom           X                Y                Z
 ----------------------------------------------------------------
    1      C       4.5621266937     0.7322482794     0.3437040776
    2      C       3.3351743253     1.1478122583     0.0541988792
    3      C       2.1355237688     0.3226023699    -0.0337222394
    4      C       2.1649393469    -1.0720092074     0.0387165739
    5      C       1.0015258123    -1.8065137031    -0.0642824528
    6      C      -0.2086097158    -1.1553514477    -0.2212274690
    7      F      -1.3202423945    -1.8995058077    -0.3705597270
    8      C      -0.2896828027     0.2354062739    -0.2797106599
    9      C      -1.5508389761     0.9551040141    -0.4409674395
   10      C      -2.7090355304     0.6298734917     0.1108916818
   11      F      -2.9525031428    -0.3642132996     0.9460256956
   12      F      -3.8228809269     1.3346900649    -0.0707307536
   13      C       0.9028996768     0.9489769344    -0.2039578683
   14      H       5.3875554454     1.4213240846     0.3895455545
   15      H       4.7973985150    -0.2972047923     0.5516343471
   16      H       3.1686421257     2.2018417957    -0.1303324813
   17      H       3.1031157616    -1.5886889875     0.1589475691
   18      H       1.0140334724    -2.8845961715    -0.0312480100
   19      H      -1.5353444317     1.8525329782    -1.0406592719
   20      H       0.8611016964     2.0271568922    -0.2623631438
 ----------------------------------------------------------------

    9    -684.7460097094      3.82e-06  Convergence criterion met
 Total energy in the final basis set =     -684.7460097094

                    Orbital Energies (a.u.)
 --------------------------------------------------------------

 Alpha MOs
 -- Occupied --
-24.7395 -24.7346 -24.7094 -10.3586 -10.2750 -10.2144 -10.2053 -10.2022
-10.1999 -10.1992 -10.1986 -10.1955 -10.1840  -1.2850  -1.2254  -1.2207
 -0.8802  -0.8194  -0.7920  -0.7528  -0.7288  -0.6531  -0.6286  -0.6237
 -0.5790  -0.5669  -0.5514  -0.5246  -0.5177  -0.4913  -0.4857  -0.4653
 -0.4525  -0.4428  -0.4369  -0.4355  -0.4339  -0.4130  -0.4043  -0.3885
 -0.3778  -0.3597  -0.3476  -0.3103  -0.2874  -0.2411  -0.2210

          Ground-State Mulliken Net Atomic Charges

     Atom                 Charge (a.u.)
  ----------------------------------------
      1 C                    -0.354365
      2 C                    -0.111377
      3 C                     0.181054
      4 C                    -0.179118
      5 C                    -0.197492
      6 C                     0.323759
      7 F                    -0.288560
      8 C                     0.105512
      9 C                    -0.315926
     10 C                     0.568369
     11 F                    -0.227702
     12 F                    -0.246463
     13 C                    -0.264377
     14 H                     0.146478
     15 H                     0.143047
     16 H                     0.128699
     17 H                     0.136156
     18 H                     0.148187
     19 H                     0.169152
     20 H                     0.134967
  ----------------------------------------
  Sum of atomic charges =     0.000000

                    Cartesian Multipole Moments
 -----------------------------------------------------------------
    Charge (ESU x 10^10)
                 0.0000
    Dipole Moment (Debye)
         X       1.8378      Y       0.7299      Z      -0.2564
       Tot       1.9940
    Quadrupole Moments (Debye-Ang)
        XX     -71.2505     XY      -2.0278     YY     -66.3256
        XZ       1.3861     YZ      -1.5411     ZZ     -73.9979

 Total job time:  26.25s(wall), 26.16s(cpu)
        *  Thank you very much for using Q-Chem.  Have a nice day.  *
