 Q-Chem 5.2, Q-Chem, Inc., Pleasanton, CA (2019)
 Q-Chem 5.2.1 for Intel X86 EM64T Linux

User input:
--------------------------------------------------------------
$molecule
0 1
C         4.06453104920000   -0.35340816840000   -0.02420755590000
C         3.11817824640000    0.57867700010000   -0.02277480800000
C         1.68027676850000    0.35391670700000   -0.00756960150000
C         0.82072880390000    1.45359300490000   -0.00716502050000
C        -0.54279119030000    1.26676243700000    0.00784403910000
F        -1.32453051430000    2.36719725280000    0.00752038030000
C        -1.16011651370000    0.00880632150000    0.01850320970000
C        -2.61312688810000   -0.07727906520000    0.03501960410000
C        -3.35750843580000   -1.17017809100000   -0.09550926370000
C        -0.26446869860000   -1.06702378380000    0.02101286100000
F        -0.73259245780000   -2.33139943610000    0.04648612000000
C         1.10521099760000   -0.91657143140000    0.00902278940000
H         5.10730043190000   -0.08783431800000   -0.03612719010000
H         3.84756672740000   -1.40738787520000   -0.01372885120000
H         3.40771685750000    1.62177344000000   -0.03387651000000
H         1.20938347810000    2.46016697870000   -0.01775507500000
H        -3.10349118410000    0.88005920100000    0.15689957710000
H        -2.94851317520000   -2.15433070550000   -0.23375677390000
H        -4.43183339500000   -1.10247066720000   -0.06960749700000
H         1.71365153420000   -1.80585923050000    0.01436954450000
$end

$rem
BASIS = 6-31G*
GUI = 2
METHOD = B3LYP
PRINT_ORBITALS false
MOLDEN_FORMAT false
--------------------------------------------------------------

             Standard Nuclear Orientation (Angstroms)
    I     Atom           X                Y                Z
 ----------------------------------------------------------------
    1      C       3.9744557268    -0.7234267647    -0.0206820125
    2      C       3.1205671561     0.2940420110    -0.0208842603
    3      C       1.6678447644     0.2064011256    -0.0058584250
    4      C       0.9162331265     1.3824915605    -0.0072943466
    5      C      -0.4588517989     1.3255700724     0.0075076753
    6      F      -1.1329321264     2.4950504692     0.0053692376
    7      C      -1.1924665612     0.1317032574     0.0197211877
    8      C      -2.6471055226     0.1835464916     0.0358582290
    9      C      -3.4915548478    -0.8341812424    -0.0933917272
   10      C      -0.4026608268    -1.0240605089     0.0240502735
   11      F      -0.9883544503    -2.2384178501     0.0511382433
   12      C       0.9751125288    -1.0039325624     0.0123204529
   13      H       5.0376817953    -0.5577540485    -0.0326156423
   14      H       3.6587100292    -1.7521249509    -0.0087976271
   15      H       3.5075314593     1.3050361936    -0.0333513698
   16      H       1.3984118263     2.3477472641    -0.0191643867
   17      H      -3.0446876665     1.1831708220     0.1562246004
   18      H      -3.1775108744    -1.8528218709    -0.2301159701
   19      H      -4.5546546274    -0.6650625137    -0.0679549608
   20      H       1.4966547767    -1.9468051072     0.0191257467
 ----------------------------------------------------------------

    9    -585.5131688864      2.48e-06  Convergence criterion met
 Total energy in the final basis set =     -585.5131688864

                    Orbital Energies (a.u.)
 --------------------------------------------------------------

 Alpha MOs
 -- Occupied --
-24.7155 -24.7141 -10.2824 -10.2807 -10.2148 -10.2128 -10.2016 -10.1978
-10.1970 -10.1964 -10.1915 -10.1816  -1.2276  -1.2259  -0.8834  -0.8205
 -0.7784  -0.7591  -0.7303  -0.6534  -0.6352  -0.5882  -0.5826  -0.5439
 -0.5231  -0.4999  -0.4966  -0.4763  -0.4693  -0.4601  -0.4469  -0.4371
 -0.4238  -0.4054  -0.3885  -0.3740  -0.3732  -0.3663  -0.3424  -0.3279
 -0.2763  -0.2509  -0.2206

          Ground-State Mulliken Net Atomic Charges

     Atom                 Charge (a.u.)
  ----------------------------------------
      1 C                    -0.346252
      2 C                    -0.115536
      3 C                     0.194469
      4 C                    -0.277150
      5 C                     0.319627
      6 F                    -0.290644
      7 C                     0.018344
      8 C                    -0.102874
      9 C                    -0.353019
     10 C                     0.337560
     11 F                    -0.289606
     12 C                    -0.270529
     13 H                     0.151385
     14 H                     0.149104
     15 H                     0.134983
     16 H                     0.145310
     17 H                     0.147071
     18 H                     0.161062
     19 H                     0.143890
     20 H                     0.142805
  ----------------------------------------
  Sum of atomic charges =     0.000000

                    Cartesian Multipole Moments
 -----------------------------------------------------------------
    Charge (ESU x 10^10)
                -0.0000
    Dipole Moment (Debye)
         X       1.3321      Y      -0.0305      Z      -0.0273
       Tot       1.3327
    Quadrupole Moments (Debye-Ang)
        XX     -59.3468     XY       0.4563     YY     -66.8211
        XZ      -0.0273     YZ       0.3465     ZZ     -70.7945

 Total job time:  26.57s(wall), 26.47s(cpu)
        *  Thank you very much for using Q-Chem.  Have a nice day.  *
