 Q-Chem 5.2, Q-Chem, Inc., Pleasanton, CA (2019)
 Q-Chem 5.2.1 for Intel X86 EM64T Linux

User input:
--------------------------------------------------------------
$molecule
0 1
C         3.49793065320000   -1.78048477450000   -0.00048448810000
C         3.30908297440000   -0.46753690640000    0.00019778000000
C         2.00918883240000    0.16837498660000    0.00010013410000
C         0.71440466610000   -0.41793400050000   -0.00007788540000
C        -0.13490612140000    0.65960787880000   -0.00010846020000
C        -1.56784684300000    0.79635634010000   -0.00039233900000
C        -2.42162085840000   -0.21859416950000   -0.00005151950000
F        -2.10593467610000   -1.50509584520000    0.00057857680000
F        -3.73807673400000   -0.08123601620000   -0.00023558050000
O         0.59662140480000    1.79331039030000    0.00003303460000
N         1.90405944990000    1.47998307300000    0.00033056930000
H         4.48681768230000   -2.20459345120000   -0.00044252820000
H         2.67820291510000   -2.47899229880000   -0.00131298240000
H         4.14007546010000    0.22283253890000    0.00070986480000
H         0.45611574770000   -1.45433900090000   -0.00001506440000
H        -1.96120767100000    1.80018808510000   -0.00078945220000
$end

$rem
BASIS = 6-31G*
GUI = 2
METHOD = B3LYP
PRINT_ORBITALS false
MOLDEN_FORMAT false
--------------------------------------------------------------

             Standard Nuclear Orientation (Angstroms)
    I     Atom           X                Y                Z
 ----------------------------------------------------------------
    1      C       3.4564386237    -1.6539966571    -0.0004393201
    2      C       3.2252339122    -0.3478420097     0.0002196045
    3      C       1.9054565572     0.2457036473     0.0001105684
    4      C       0.6303085271    -0.3821671759    -0.0000571229
    5      C      -0.2534017582     0.6673476860    -0.0001069041
    6      C      -1.6900150496     0.7576887216    -0.0003933126
    7      C      -2.5105229037    -0.2843388477    -0.0000345174
    8      F      -2.1534011904    -1.5599596299     0.0006184613
    9      F      -3.8307319804    -0.1896217559    -0.0002211108
   10      O       0.4410835429     1.8241121729     0.0000144964
   11      N       1.7579696851     1.5532263400     0.0003176897
   12      H       4.4585225893    -2.0459066609    -0.0003897552
   13      H       2.6597266684    -2.3786458182    -0.0012554594
   14      H       4.0334678792     0.3690375821     0.0007194797
   15      H       0.4056681171    -1.4263822753     0.0000240965
   16      H      -2.1156303073     1.7482756946    -0.0008082906
 ----------------------------------------------------------------

    9    -599.3084474740      9.26e-06  Convergence criterion met
 Total energy in the final basis set =     -599.3084474740

                    Orbital Energies (a.u.)
 --------------------------------------------------------------

 Alpha MOs
 -- Occupied --
-24.7624 -24.7561 -19.2443 -14.3766 -10.3807 -10.2704 -10.2285 -10.2257
-10.2032 -10.1978 -10.1946  -1.3065  -1.2461  -1.1664  -0.8834  -0.8434
 -0.7861  -0.7706  -0.6714  -0.6497  -0.6109  -0.5979  -0.5631  -0.5483
 -0.5396  -0.5046  -0.4837  -0.4802  -0.4602  -0.4541  -0.4422  -0.4352
 -0.4264  -0.3968  -0.3688  -0.3446  -0.3224  -0.2986  -0.2554  -0.2360

          Ground-State Mulliken Net Atomic Charges

     Atom                 Charge (a.u.)
  ----------------------------------------
      1 C                    -0.348052
      2 C                    -0.081503
      3 C                     0.303908
      4 C                    -0.305857
      5 C                     0.425123
      6 C                    -0.303671
      7 C                     0.574105
      8 F                    -0.229904
      9 F                    -0.233505
     10 O                    -0.373815
     11 N                    -0.226148
     12 H                     0.154584
     13 H                     0.147095
     14 H                     0.153484
     15 H                     0.154313
     16 H                     0.189844
  ----------------------------------------
  Sum of atomic charges =     0.000000

                    Cartesian Multipole Moments
 -----------------------------------------------------------------
    Charge (ESU x 10^10)
                 0.0000
    Dipole Moment (Debye)
         X      -0.8543      Y      -1.9587      Z      -0.0008
       Tot       2.1369
    Quadrupole Moments (Debye-Ang)
        XX     -56.9877     XY      -7.1504     YY     -61.7902
        XZ       0.0004     YZ       0.0005     ZZ     -61.7827

 Total job time:  20.70s(wall), 16.11s(cpu)
        *  Thank you very much for using Q-Chem.  Have a nice day.  *
