 Q-Chem 5.2, Q-Chem, Inc., Pleasanton, CA (2019)
 Q-Chem 5.2.1 for Intel X86 EM64T Linux

User input:
--------------------------------------------------------------
$molecule
0 1
C         2.31708309870000   -3.29309122410000   -0.16175504460000
C         1.07286501610000   -2.86657020320000    0.02162399870000
C         0.58854516260000   -1.49186245120000    0.04957416850000
C        -0.78653893850000   -1.27211424770000    0.05896698360000
C        -1.34312567560000   -0.00159915910000    0.06332164930000
C        -2.82867554780000    0.07601685470000   -0.01187398750000
O        -3.55800158630000   -0.72768101440000    0.49956537700000
O        -3.33447916860000    1.09966193190000   -0.73297551850000
C        -0.51242140140000    1.13007459330000    0.12863191490000
N        -1.04530805780000    2.40884119720000    0.12224432100000
C         0.88235184060000    0.94625548070000    0.13238942550000
C         1.78547731520000    2.10139031590000    0.23922261390000
C         2.86277047550000    2.29028370600000   -0.50607643380000
C         1.39114680810000   -0.34716790280000    0.07607856630000
F         2.73163459120000   -0.47953365400000    0.11084307300000
H         2.53719251740000   -4.34726046910000   -0.16663521500000
H         3.15417001140000   -2.63689467260000   -0.31451863020000
H         0.28428412080000   -3.59686470390000    0.15542492750000
H        -1.46281887210000   -2.11349606090000    0.04221780720000
H        -2.64040260020000    1.62496414520000   -1.15769851510000
H        -1.92364257980000    2.52679405490000    0.60654419740000
H        -0.38195376280000    3.14273398960000    0.31969795170000
H         1.53055825670000    2.82551262270000    1.00651422290000
H         3.14792135870000    1.60068148650000   -1.28163737260000
H         3.50022607290000    3.14627505000000   -0.36666674330000
$end

$rem
BASIS = 6-31G*
GUI = 2
METHOD = B3LYP
PRINT_ORBITALS false
MOLDEN_FORMAT false
--------------------------------------------------------------

             Standard Nuclear Orientation (Angstroms)
    I     Atom           X                Y                Z
 ----------------------------------------------------------------
    1      C       3.1108611659     2.5482189814     0.2074544777
    2      C       1.7967783854     2.4823653453     0.0272422794
    3      C       0.9551350425     1.2933054712    -0.0269927182
    4      C      -0.4276863897     1.4577397079    -0.0272198789
    5      C      -1.3102864442     0.3880315675    -0.0547514533
    6      C      -2.7602167343     0.7172279874     0.0339554985
    7      O      -3.2440452507     1.7019292993    -0.4515239055
    8      O      -3.5238288837    -0.1468626750     0.7367483395
    9      C      -0.8206913700    -0.9255122918    -0.1543491284
   10      N      -1.6827087455    -2.0098933949    -0.1715736686
   11      C       0.5712030396    -1.1295505876    -0.1682885656
   12      C       1.1238980907    -2.4844083066    -0.3106760023
   13      C       2.1113140561    -2.9786755547     0.4189962085
   14      C       1.4142824082    -0.0260440816    -0.0878034726
   15      F       2.7397831297    -0.2639725041    -0.1333519391
   16      H       3.6106754007     3.5017508182     0.2340540340
   17      H       3.7373312794     1.6847970178     0.3366165322
   18      H       1.2372860148     3.4033299291    -0.0817765139
   19      H      -0.8482411177     2.4511457512     0.0156356101
   20      H      -2.9981526616    -0.8520705816     1.1422364897
   21      H      -2.5616265815    -1.8714930844    -0.6493597828
   22      H      -1.2458817150    -2.8919364818    -0.3924981488
   23      H       0.6779752601    -3.0922031990    -1.0915802556
   24      H       2.5769152937    -2.4125380150     1.2070703109
   25      H       2.4900774518    -3.9724982786     0.2535859151
 ----------------------------------------------------------------

    9    -730.1916994925      6.74e-06  Convergence criterion met
 Total energy in the final basis set =     -730.1916994925

                    Orbital Energies (a.u.)
 --------------------------------------------------------------

 Alpha MOs
 -- Occupied --
-24.7209 -19.1921 -19.1301 -14.3744 -10.3178 -10.2872 -10.2594 -10.2140
-10.2103 -10.2075 -10.2068 -10.2062 -10.1970 -10.1946 -10.1781  -1.2335
 -1.1021  -1.0192  -0.9572  -0.8730  -0.8189  -0.7929  -0.7542  -0.7324
 -0.6616  -0.6442  -0.6277  -0.6005  -0.5831  -0.5606  -0.5501  -0.5337
 -0.4954  -0.4885  -0.4755  -0.4708  -0.4565  -0.4491  -0.4424  -0.4383
 -0.4199  -0.4080  -0.4022  -0.3925  -0.3796  -0.3658  -0.3451  -0.3417
 -0.3162  -0.3045  -0.2840  -0.2721  -0.2458  -0.2156

          Ground-State Mulliken Net Atomic Charges

     Atom                 Charge (a.u.)
  ----------------------------------------
      1 C                    -0.360141
      2 C                    -0.110006
      3 C                     0.129056
      4 C                    -0.272975
      5 C                     0.046086
      6 C                     0.513590
      7 O                    -0.440780
      8 O                    -0.582530
      9 C                     0.200083
     10 N                    -0.838446
     11 C                     0.054478
     12 C                    -0.156015
     13 C                    -0.311401
     14 C                     0.248885
     15 F                    -0.277580
     16 H                     0.141064
     17 H                     0.156170
     18 H                     0.135630
     19 H                     0.169526
     20 H                     0.426029
     21 H                     0.346911
     22 H                     0.337718
     23 H                     0.137181
     24 H                     0.158778
     25 H                     0.148688
  ----------------------------------------
  Sum of atomic charges =     0.000000

                    Cartesian Multipole Moments
 -----------------------------------------------------------------
    Charge (ESU x 10^10)
                 0.0000
    Dipole Moment (Debye)
         X       1.9324      Y      -4.1222      Z       0.1892
       Tot       4.5565
    Quadrupole Moments (Debye-Ang)
        XX     -97.8491     XY      10.8150     YY     -75.5295
        XZ       1.3526     YZ       3.7665     ZZ     -85.5130

 Total job time:  42.95s(wall), 42.81s(cpu)
        *  Thank you very much for using Q-Chem.  Have a nice day.  *
