 Q-Chem 5.4, Q-Chem, Inc., Pleasanton, CA (2021)
 Q-Chem 5.4.2 for Intel X86 EM64T Linux

User input:
--------------------------------------------------------------
$molecule
0 1
C            0.20972575180000        4.06315848900000       -0.11718743120000
C           -0.69990870690000        3.09669125640000       -0.12357320730000
C           -0.44379822820000        1.66069779800000       -0.06584330880000
C           -1.53431805140000        0.79143278730000       -0.03219372200000
C           -1.36593683520000       -0.59139376120000        0.02522625100000
C           -2.47334179650000       -1.53536106070000        0.06320120990000
C           -3.77343915830000       -1.28255067770000        0.05132540800000
F           -4.37698222890000       -0.10100840930000        0.00147894270000
F           -4.70068465830000       -2.23596911540000        0.09001227800000
C           -0.07031588920000       -1.10400281910000        0.04745532950000
C            1.02596222580000       -0.25071795150000        0.01230699790000
C            2.38158445170000       -0.85894667190000        0.03705196010000
O            2.58851267170000       -2.04750826010000        0.08802970090000
O            3.35644468060000        0.05466317410000       -0.00396833910000
C            4.69265151490000       -0.44874757040000        0.01487077380000
C            5.64784152040000        0.72556544860000       -0.08124530790000
C            0.84291954450000        1.12465040210000       -0.04421144540000
H           -0.07817610470000        5.09933457140000       -0.16155743880000
H            1.26760607850000        3.87107019660000       -0.06628718870000
H           -1.74845717990000        3.36287662400000       -0.17193225370000
H           -2.52663613320000        1.21336428080000       -0.05052824820000
H           -2.20804761420000       -2.58169519280000        0.10705354530000
H            0.10671394730000       -2.16798566310000        0.09138397320000
H            4.82128339180000       -1.13999671530000       -0.82575644930000
H            4.84389659610000       -1.01288590570000        0.94225543790000
H            5.47533287550000        1.27443253060000       -1.00323059350000
H            6.67188367420000        0.36425601050000       -0.06952664390000
H            5.49926845240000        1.39936966070000        0.75836775330000
H            1.70809709040000        1.76557883410000       -0.07309066000000
$end

$rem
BASIS = 6-31G*
GUI = 2
METHOD = B3LYP
PRINT_ORBITALS false
MOLDEN_FORMAT false
$end
--------------------------------------------------------------

             Standard Nuclear Orientation (Angstroms)
    I     Atom           X                Y                Z
 ----------------------------------------------------------------
    1      C       0.5951019612    -3.9660694700    -0.0324887733
    2      C      -0.4315119640    -3.1260272421     0.0114138718
    3      C      -0.3631481486    -1.6678443676     0.0057903205
    4      C      -1.5568768207    -0.9460419422     0.0065347943
    5      C      -1.5686484526     0.4481137528    -0.0005275891
    6      C      -2.7887853313     1.2419194376    -0.0013277632
    7      C      -4.0453054902     0.8230718802     0.0042479330
    8      F      -4.4910630752    -0.4275396738     0.0121191765
    9      F      -5.0880157994     1.6495344205     0.0026702334
   10      C      -0.3501454347     1.1242094805    -0.0069132083
   11      C       0.8472428706     0.4189324683    -0.0055871897
   12      C       2.1128951062     1.1976236356    -0.0111183097
   13      O       2.1644466854     2.4040139952    -0.0189542673
   14      O       3.1977036384     0.4166749428    -0.0058581415
   15      C       4.4576626319     1.0887743225    -0.0092863199
   16      C       5.5569739845     0.0449492587     0.0415182124
   17      C       0.8435076584    -0.9696932092     0.0008813254
   18      H       0.4435558498    -5.0316687129    -0.0254830614
   19      H       1.6189917296    -3.6372676666    -0.0787342979
   20      H      -1.4366096968    -3.5269603288     0.0523816036
   21      H      -2.4863392101    -1.4929705738     0.0116586965
   22      H      -2.6609639691     2.3146468364    -0.0073919031
   23      H      -0.3121257706     2.2030307310    -0.0122043114
   24      H       4.5019566135     1.7600761235     0.8558250044
   25      H       4.5283889216     1.7007961967    -0.9157059074
   26      H       5.4631549103    -0.5544904526     0.9431507245
   27      H       6.5257593698     0.5356613885     0.0407101984
   28      H       5.4906631060    -0.6116768615    -0.8218943025
   29      H       1.7843000039    -1.4941489351     0.0042583122
 ----------------------------------------------------------------

    9    -852.7138412016      6.41e-06  Convergence criterion met
 Total energy in the final basis set =     -852.7138412016

                    Orbital Energies (a.u.)
 --------------------------------------------------------------

 Alpha MOs
 -- Occupied --
-24.7488 -24.7379 -19.1926 -19.1324 -10.3613 -10.3134 -10.2448 -10.2136
-10.2067 -10.2048 -10.2045 -10.1976 -10.1971 -10.1970 -10.1959 -10.1864
-10.1858  -1.2900  -1.2287  -1.1100  -1.0168  -0.8808  -0.8213  -0.8031
 -0.7790  -0.7518  -0.7346  -0.6697  -0.6535  -0.6309  -0.6209  -0.5859
 -0.5747  -0.5560  -0.5363  -0.5233  -0.5129  -0.5008  -0.4981  -0.4706
 -0.4616  -0.4539  -0.4449  -0.4448  -0.4382  -0.4304  -0.4208  -0.4120
 -0.4039  -0.3988  -0.3905  -0.3773  -0.3651  -0.3612  -0.3557  -0.3466
 -0.3250  -0.3018  -0.2897  -0.2735  -0.2408  -0.2243

          Ground-State Mulliken Net Atomic Charges

     Atom                 Charge (a.u.)
  ----------------------------------------
      1 C                    -0.352184
      2 C                    -0.111068
      3 C                     0.179237
      4 C                    -0.264450
      5 C                     0.194954
      6 C                    -0.295278
      7 C                     0.545992
      8 F                    -0.233670
      9 F                    -0.245605
     10 C                    -0.233010
     11 C                     0.046559
     12 C                     0.605290
     13 O                    -0.492491
     14 O                    -0.470580
     15 C                    -0.033371
     16 C                    -0.462622
     17 C                    -0.223035
     18 H                     0.147582
     19 H                     0.147059
     20 H                     0.130748
     21 H                     0.142542
     22 H                     0.166312
     23 H                     0.160041
     24 H                     0.159952
     25 H                     0.158545
     26 H                     0.161989
     27 H                     0.156403
     28 H                     0.161603
     29 H                     0.152555
  ----------------------------------------
  Sum of atomic charges =     0.000000

                    Cartesian Multipole Moments
 -----------------------------------------------------------------
    Charge (ESU x 10^10)
                 0.0000
    Dipole Moment (Debye)
         X       1.4037      Y      -1.6724      Z       0.0165
       Tot       2.1835
    Quadrupole Moments (Debye-Ang)
        XX     -86.1811     XY      -2.0266     YY     -96.4211
        XZ      -0.0570     YZ       0.0504     ZZ     -97.6819

 Total job time:  92.03s(wall), 80.70s(cpu)
        *  Thank you very much for using Q-Chem.  Have a nice day.  *
