 Q-Chem 5.2, Q-Chem, Inc., Pleasanton, CA (2019)
 Q-Chem 5.2.1 for Intel X86 EM64T Linux

User input:
--------------------------------------------------------------
$molecule
0 1
C        -2.06253099230000   -3.15685965200000   -0.23266460220000
C        -2.18078323150000   -1.85248241660000   -0.45030482850000
C        -1.12052500270000   -0.87472811420000   -0.23068358750000
C         0.22187043160000   -1.24866314520000   -0.26911155860000
C         1.25195730060000   -0.34440722520000   -0.06049489900000
C         2.63556345900000   -0.91652985990000   -0.04050261360000
O         3.02218673270000   -1.72478494660000   -0.83528124710000
O         3.41181615610000   -0.53377939680000    0.99227781320000
C         0.96397451790000    1.01211045080000    0.15802352710000
C         1.98458151710000    2.05770228750000    0.23181466620000
C         3.11378886020000    2.06059530460000   -0.46574803540000
C        -0.37659469910000    1.38307749810000    0.23627833690000
C        -1.40966086120000    0.47365461700000    0.04733599120000
C        -2.81435856040000    0.98861713960000    0.11638687350000
O        -3.67473357800000    0.72900647560000   -0.67508453600000
O        -3.06190252720000    1.81769808770000    1.14944405150000
H        -2.88446181140000   -3.82661846640000   -0.41617838430000
H        -1.16074681220000   -3.60705680320000    0.14811864370000
H        -3.11940771520000   -1.44816485950000   -0.79896068740000
H         0.48688132510000   -2.27254510590000   -0.48203330470000
H         3.00015217450000    0.15544350390000    1.53019473710000
H         1.72926625640000    2.91030305040000    0.84970232650000
H         3.37738672640000    1.25808653180000   -1.13476994880000
H         3.81030270620000    2.87851520410000   -0.40344139600000
H        -0.60796617280000    2.42971205780000    0.39108164440000
H        -2.29756710410000    1.92859911630000    1.73040150550000
$end

$rem
BASIS = 6-31G*
GUI = 2
METHOD = B3LYP
PRINT_ORBITALS false
MOLDEN_FORMAT false
--------------------------------------------------------------

             Standard Nuclear Orientation (Angstroms)
    I     Atom           X                Y                Z
 ----------------------------------------------------------------
    1      C      -2.1282768144    -3.1201220461     0.2556881193
    2      C      -2.2234226387    -1.8644231939    -0.1649286861
    3      C      -1.1460154637    -0.8829758131    -0.0990553593
    4      C       0.1895485561    -1.2817130219    -0.0744178734
    5      C       1.2354876351    -0.3740409569    -0.0079234943
    6      C       2.6087485054    -0.9599839162     0.1057225917
    7      O       2.9809840154    -1.8899424715    -0.5508173748
    8      O       3.3916788830    -0.4330130258     1.0675038981
    9      C       0.9715707259     1.0047884141    -0.0065016176
   10      C       2.0105306211     2.0309464337    -0.0954292440
   11      C       3.1395965929     1.9042136642    -0.7816217478
   12      C      -0.3622190169     1.4068346069     0.0086632035
   13      C      -1.4112279580     0.4972109968    -0.0375970529
   14      C      -2.8065870360     1.0411059964    -0.0543697394
   15      O      -3.6714410774     0.6751888170    -0.7974726694
   16      O      -3.0393910029     2.0267163523     0.8345818377
   17      H      -2.9619403590    -3.7959459287     0.1776392673
   18      H      -1.2345957593    -3.5204413506     0.7050951608
   19      H      -3.1547497589    -1.5037007769    -0.5754876336
   20      H       0.4363862990    -2.3308250692    -0.1227475123
   21      H       2.9922934907     0.3394074142     1.4890582004
   22      H       1.7703636837     2.9745399100     0.3798078523
   23      H       3.3889305243     1.0018826910    -1.3152188726
   24      H       3.8504831589     2.7094342665    -0.8469416447
   25      H      -0.5750210999     2.4686718930    -0.0038897198
   26      H      -2.2731989764     2.2143325909     1.3929447717
 ----------------------------------------------------------------

    9    -764.1553781345      7.79e-06  Convergence criterion met
 Total energy in the final basis set =     -764.1553781345

                    Orbital Energies (a.u.)
 --------------------------------------------------------------

 Alpha MOs
 -- Occupied --
-19.2081 -19.2002 -19.1469 -19.1431 -10.3336 -10.3295 -10.2338 -10.2316
-10.2297 -10.2290 -10.2266 -10.2204 -10.2177 -10.2106 -10.1990 -10.1949
 -1.1181  -1.1121  -1.0359  -1.0310  -0.9040  -0.8393  -0.8007  -0.7924
 -0.7444  -0.6907  -0.6591  -0.6416  -0.6269  -0.6114  -0.5925  -0.5554
 -0.5440  -0.5144  -0.4941  -0.4699  -0.4652  -0.4613  -0.4577  -0.4525
 -0.4474  -0.4412  -0.4279  -0.4105  -0.4041  -0.3998  -0.3832  -0.3699
 -0.3660  -0.3415  -0.3279  -0.3225  -0.2980  -0.2945  -0.2807  -0.2732
 -0.2418

          Ground-State Mulliken Net Atomic Charges

     Atom                 Charge (a.u.)
  ----------------------------------------
      1 C                    -0.337169
      2 C                    -0.135596
      3 C                     0.133606
      4 C                    -0.235259
      5 C                     0.014399
      6 C                     0.514388
      7 O                    -0.435957
      8 O                    -0.558273
      9 C                     0.134824
     10 C                    -0.189210
     11 C                    -0.321618
     12 C                    -0.279314
     13 C                     0.002567
     14 C                     0.546786
     15 O                    -0.430536
     16 O                    -0.560457
     17 H                     0.157393
     18 H                     0.150233
     19 H                     0.188901
     20 H                     0.172718
     21 H                     0.414929
     22 H                     0.143483
     23 H                     0.183811
     24 H                     0.162391
     25 H                     0.148687
     26 H                     0.414275
  ----------------------------------------
  Sum of atomic charges =     0.000000

                    Cartesian Multipole Moments
 -----------------------------------------------------------------
    Charge (ESU x 10^10)
                -0.0000
    Dipole Moment (Debye)
         X       1.2127      Y       2.9938      Z       3.0218
       Tot       4.4232
    Quadrupole Moments (Debye-Ang)
        XX    -113.4988     XY      17.5226     YY     -83.9369
        XZ      -2.7684     YZ       1.5649     ZZ     -89.9707

 Total job time:  47.93s(wall), 47.79s(cpu)
        *  Thank you very much for using Q-Chem.  Have a nice day.  *
