 Q-Chem 5.2, Q-Chem, Inc., Pleasanton, CA (2019)
 Q-Chem 5.2.1 for Intel X86 EM64T Linux

User input:
--------------------------------------------------------------
$molecule
0 1
C        -1.56717668220000    3.87784822880000    0.09548648460000
C        -0.56206029160000    3.02510148910000   -0.05948570700000
C        -0.64732171350000    1.56832506910000   -0.03532013400000
C        -1.86669918370000    0.89012986270000   -0.02645292000000
C        -1.88025162010000   -0.49188343140000    0.00085034690000
Cl       -3.39694589370000   -1.32535036530000    0.00943818440000
C        -0.70799027770000   -1.22513155360000    0.01966614090000
C         0.52111449770000   -0.56226257480000    0.00594052000000
C         1.72662757000000   -1.37728085830000    0.02339606630000
C         2.99052407730000   -0.98060954790000    0.00040442200000
F         3.45826749000000    0.25990085270000   -0.04515797100000
F         4.01694204870000   -1.82643148970000    0.02010799270000
C         0.53497420520000    0.83013841600000   -0.02448843940000
H        -1.40477801760000    4.94140967570000    0.06740841710000
H        -2.58245725940000    3.56201017850000    0.26281258050000
H         0.43834477310000    3.41210458870000   -0.20656791340000
H        -2.79838449550000    1.43044619340000   -0.04878708180000
H        -0.74700541050000   -2.30275314970000    0.04133769990000
H         1.58345711600000   -2.44750782370000    0.05896878700000
H         1.47277958310000    1.36125316360000   -0.03494406660000
$end

$rem
BASIS = 6-31G*
GUI = 2
METHOD = B3LYP
PRINT_ORBITALS false
MOLDEN_FORMAT false
--------------------------------------------------------------

             Standard Nuclear Orientation (Angstroms)
    I     Atom           X                Y                Z
 ----------------------------------------------------------------
    1      C       2.4688077497    -3.2859953913     0.0958137582
    2      C       1.2769571458    -2.7224290112    -0.0569521219
    3      C       0.9828570624    -1.2930573216    -0.0356745120
    4      C       1.9855235039    -0.3227178155    -0.0325074353
    5      C       1.6414856814     1.0159054395    -0.0076953445
    6      Cl      2.8912294964     2.2130856683    -0.0061796479
    7      C       0.3195986671     1.4212951865     0.0141535031
    8      C      -0.6964410226     0.4632339631     0.0061369066
    9      C      -2.0715893423     0.9390169685     0.0266038690
   10      C      -3.1900723137     0.2290899621     0.0089796285
   11      F      -3.3214205838    -1.0902808329    -0.0326643747
   12      F      -4.4001673573     0.7809258580     0.0309789287
   13      C      -0.3500247998    -0.8855117145    -0.0217813693
   14      H       2.5867442029    -4.3554626890     0.0702140006
   15      H       3.3684666708    -2.7180295132     0.2588319589
   16      H       0.4101254485    -3.3552428280    -0.1996558351
   17      H       3.0251320936    -0.6039224313    -0.0573271120
   18      H       0.0788179846     2.4724372805     0.0337775346
   19      H      -2.2098000538     2.0099733610     0.0597574396
   20      H      -1.1187103074    -1.6409963607    -0.0278362513
 ----------------------------------------------------------------

    9   -1045.1112706838      6.14e-06  Convergence criterion met
 Total energy in the final basis set =    -1045.1112706838

                    Orbital Energies (a.u.)
 --------------------------------------------------------------

 Alpha MOs
 -- Occupied --
******** -24.7529 -24.7420 -10.3660 -10.2537 -10.2199 -10.2115 -10.2100
-10.2042 -10.2012 -10.1990 -10.1967 -10.1891  -9.4676  -7.2316  -7.2220
 -7.2214  -1.2943  -1.2329  -0.9035  -0.8575  -0.8242  -0.7846  -0.7419
 -0.7367  -0.6587  -0.6373  -0.6137  -0.5851  -0.5665  -0.5278  -0.5274
 -0.5183  -0.4937  -0.4649  -0.4503  -0.4488  -0.4434  -0.4422  -0.4259
 -0.4165  -0.4089  -0.3837  -0.3687  -0.3574  -0.3521  -0.3283  -0.3151
 -0.2777  -0.2382  -0.2292

          Ground-State Mulliken Net Atomic Charges

     Atom                 Charge (a.u.)
  ----------------------------------------
      1 C                    -0.349708
      2 C                    -0.111742
      3 C                     0.182599
      4 C                    -0.186311
      5 C                    -0.070471
      6 Cl                   -0.014491
      7 C                    -0.196995
      8 C                     0.201720
      9 C                    -0.299283
     10 C                     0.550534
     11 F                    -0.231371
     12 F                    -0.244230
     13 C                    -0.268743
     14 H                     0.150058
     15 H                     0.148534
     16 H                     0.133702
     17 H                     0.149070
     18 H                     0.150264
     19 H                     0.164629
     20 H                     0.142234
  ----------------------------------------
  Sum of atomic charges =     0.000000

                    Cartesian Multipole Moments
 -----------------------------------------------------------------
    Charge (ESU x 10^10)
                 0.0000
    Dipole Moment (Debye)
         X      -0.4417      Y      -0.8416      Z       0.0157
       Tot       0.9507
    Quadrupole Moments (Debye-Ang)
        XX     -81.6775     XY      -5.3611     YY     -74.3984
        XZ       0.2958     YZ       0.2103     ZZ     -82.3694

 Total job time:  28.13s(wall), 28.03s(cpu)
        *  Thank you very much for using Q-Chem.  Have a nice day.  *
