 Q-Chem 5.2, Q-Chem, Inc., Pleasanton, CA (2019)
 Q-Chem 5.2.1 for Intel X86 EM64T Linux

User input:
--------------------------------------------------------------
$molecule
0 1
C         4.20124447780000    0.58595775010000   -0.03602944770000
C         3.24609550630000   -0.32995810310000    0.08117818520000
C         1.80455862510000   -0.12602971670000    0.05242752010000
C         0.96822127860000   -1.24336637190000    0.10354726070000
C        -0.41702023660000   -1.17133977710000    0.08143532580000
C        -1.24345589180000   -2.37168898020000    0.14235053820000
C        -0.87456431080000   -3.58532267110000   -0.24579214190000
C        -1.01967221440000    0.09959860290000    0.02017960460000
S        -2.78043758450000    0.18832201420000   -0.01743377400000
C        -3.13380060280000    1.96795984690000    0.00685858230000
C        -0.21833898700000    1.22921607030000   -0.03277784700000
C         1.15708592170000    1.10837487590000   -0.01674215230000
F         1.85556668120000    2.26430561460000   -0.06161242510000
H         5.23958677300000    0.30193204460000   -0.00129086400000
H         4.00374290280000    1.63364610310000   -0.17015408230000
H         3.53111477990000   -1.36788652420000    0.20725826070000
H         1.42798566190000   -2.21710180880000    0.17928699210000
H        -2.24524015780000   -2.21512104710000    0.52223814110000
H         0.09458421780000   -3.78855884820000   -0.66938623010000
H        -1.54346116740000   -4.42464802610000   -0.16817376190000
H        -4.21667192760000    2.04282814840000    0.03465471640000
H        -2.75784174640000    2.43861963440000   -0.89692361150000
H        -2.71099508180000    2.42165768490000    0.89833894830000
H        -0.62971541600000    2.22354295400000   -0.08654186400000
$end

$rem
BASIS = 6-31G*
GUI = 2
METHOD = B3LYP
PRINT_ORBITALS false
MOLDEN_FORMAT false
--------------------------------------------------------------

             Standard Nuclear Orientation (Angstroms)
    I     Atom           X                Y                Z
 ----------------------------------------------------------------
    1      C       4.2488392778    -0.1860305275     0.0414834349
    2      C       3.2068166950     0.6290824589    -0.0798788062
    3      C       1.7929556043     0.2817473061    -0.0516462876
    4      C       0.8488696004     1.3094102857    -0.1075480207
    5      C      -0.5221964090     1.0989325334    -0.0863834968
    6      C      -1.4647415699     2.2101475250    -0.1523730916
    7      C      -1.2198686178     3.4560117927     0.2316867190
    8      C      -0.9944597068    -0.2258029793    -0.0210441185
    9      S      -2.7375020782    -0.4904909405     0.0153546896
   10      C      -2.9106241179    -2.2966653111    -0.0027908166
   11      C      -0.0839723753    -1.2691880546     0.0367093186
   12      C       1.2724247624    -1.0111048730     0.0214353721
   13      F       2.0832261563    -2.0910115241     0.0711073979
   14      H       5.2535144133     0.2005500707     0.0066207636
   15      H       4.1572112788    -1.2477630793     0.1792349244
   16      H       3.3864899723     1.6899076885    -0.2094740403
   17      H       1.2087814435     2.3240646563    -0.1864179749
   18      H      -2.4453114098     1.9525870746    -0.5325641325
   19      H      -0.2765029296     3.7568866765     0.6553861978
   20      H      -1.9694513489     4.2237614458     0.1504409891
   21      H      -3.9804974056    -2.4798287689    -0.0312599148
   22      H      -2.4904838261    -2.7240719699     0.9030202202
   23      H      -2.4433626881    -2.7088202660    -0.8922505004
   24      H      -0.3936485160    -2.2995557014     0.0937206134
 ----------------------------------------------------------------

    9    -923.7769317727      3.70e-06  Convergence criterion met
 Total energy in the final basis set =     -923.7769317727

                    Orbital Energies (a.u.)
 --------------------------------------------------------------

 Alpha MOs
 -- Occupied --
-88.8903 -24.7107 -10.2744 -10.2303 -10.2231 -10.2017 -10.2007 -10.1972
-10.1962 -10.1919 -10.1912 -10.1815 -10.1757  -7.9517  -5.9169  -5.9125
 -5.9069  -1.2217  -0.8840  -0.8233  -0.7992  -0.7791  -0.7359  -0.7291
 -0.6684  -0.6383  -0.6023  -0.5945  -0.5551  -0.5244  -0.5071  -0.4823
 -0.4645  -0.4600  -0.4568  -0.4477  -0.4389  -0.4330  -0.4145  -0.4014
 -0.3936  -0.3811  -0.3695  -0.3609  -0.3417  -0.3245  -0.3159  -0.2938
 -0.2586  -0.2342  -0.2029

          Ground-State Mulliken Net Atomic Charges

     Atom                 Charge (a.u.)
  ----------------------------------------
      1 C                    -0.361275
      2 C                    -0.107758
      3 C                     0.119792
      4 C                    -0.268548
      5 C                     0.157514
      6 C                    -0.141544
      7 C                    -0.347355
      8 C                    -0.131469
      9 S                     0.149626
     10 C                    -0.609459
     11 C                    -0.242896
     12 C                     0.331407
     13 F                    -0.291059
     14 H                     0.138959
     15 H                     0.158929
     16 H                     0.128637
     17 H                     0.138366
     18 H                     0.158218
     19 H                     0.143883
     20 H                     0.146183
     21 H                     0.196864
     22 H                     0.194993
     23 H                     0.194320
     24 H                     0.143671
  ----------------------------------------
  Sum of atomic charges =     0.000000

                    Cartesian Multipole Moments
 -----------------------------------------------------------------
    Charge (ESU x 10^10)
                 0.0000
    Dipole Moment (Debye)
         X      -0.8073      Y      -0.5706      Z      -0.0902
       Tot       0.9927
    Quadrupole Moments (Debye-Ang)
        XX     -78.9765     XY       7.5241     YY     -73.7639
        XZ       0.7608     YZ      -0.0907     ZZ     -86.8001

 Total job time:  36.01s(wall), 35.12s(cpu)
        *  Thank you very much for using Q-Chem.  Have a nice day.  *
