 Q-Chem 5.2, Q-Chem, Inc., Pleasanton, CA (2019)
 Q-Chem 5.2.1 for Intel X86 EM64T Linux

User input:
--------------------------------------------------------------
$molecule
0 1
C         2.71323281730000   -1.38080144410000   -0.21469915400000
C         2.27482458610000   -0.17073680260000    0.12274329130000
C         0.90456757320000    0.27067852810000    0.08468193890000
S         0.58933209930000    1.97345246320000   -0.07267572620000
C        -1.10306579310000    1.69015957450000   -0.09216541690000
C        -1.42603166220000    0.37366774850000    0.01349471890000
C        -2.83761933550000   -0.11210190820000    0.05503577130000
C        -0.26813349780000   -0.45673342050000    0.11975432640000
C        -0.29399624910000   -1.89394102990000    0.35218117650000
C        -1.11445002640000   -2.75819699010000   -0.22979861750000
H         3.75837421200000   -1.63003964130000   -0.15106666320000
H         2.05496995740000   -2.14782769810000   -0.58325673550000
H         2.98439107820000    0.58892908220000    0.42753964560000
H        -1.77244846040000    2.52362448410000   -0.17824577150000
H        -3.49928098530000    0.68559759250000    0.38526670290000
H        -2.92831381120000   -0.95766235280000    0.73352597340000
H        -3.16258302630000   -0.43170963230000   -0.93508620430000
H         0.43785337050000   -2.24653644590000    1.07017646540000
H        -1.82275920660000   -2.46244527930000   -0.98378116520000
H        -1.08370909950000   -3.80783047280000    0.00947468570000
$end

$rem
BASIS = 6-31G*
GUI = 2
METHOD = B3LYP
PRINT_ORBITALS false
MOLDEN_FORMAT false
--------------------------------------------------------------

             Standard Nuclear Orientation (Angstroms)
    I     Atom           X                Y                Z
 ----------------------------------------------------------------
    1      C       2.6755147248    -1.4537538505    -0.2155603330
    2      C       2.2977014095    -0.2245431906     0.1259420389
    3      C       0.9512544394     0.2849187132     0.0881324182
    4      S       0.7216693420     2.0018819782    -0.0632007982
    5      C      -0.9827434240     1.8035723606    -0.0854663301
    6      C      -1.3712022356     0.5044818931     0.0149600293
    7      C      -2.8053443253     0.0896958419     0.0532559336
    8      C      -0.2563637476    -0.3831177896     0.1193023197
    9      C      -0.3542736945    -1.8180816558     0.3463467645
   10      C      -1.2161797735    -2.6381247734    -0.2396826224
   11      H       3.7068223718    -1.7551302620    -0.1517943273
   12      H       1.9801979094    -2.1855760530    -0.5876419749
   13      H       3.0439666566     0.4975986491     0.4342876652
   14      H      -1.6095479583     2.6697505373    -0.1691214574
   15      H      -3.4267244626     0.9182398550     0.3857835921
   16      H      -2.9389833387    -0.7527617105     0.7284987005
   17      H      -3.1446793806    -0.2096408041    -0.9383797438
   18      H       0.3581838515    -2.2094343169     1.0637671209
   19      H      -1.9079228599    -2.3045884993    -0.9932778106
   20      H      -1.2382024995    -3.6888543404    -0.0042903056
 ----------------------------------------------------------------

    9    -747.1150725144      3.03e-06  Convergence criterion met
 Total energy in the final basis set =     -747.1150725144

                    Orbital Energies (a.u.)
 --------------------------------------------------------------

 Alpha MOs
 -- Occupied --
-88.9017 -10.2140 -10.2034 -10.1967 -10.1938 -10.1919 -10.1907 -10.1808
-10.1801 -10.1789  -7.9636  -5.9275  -5.9239  -5.9208  -0.8883  -0.7953
 -0.7917  -0.7498  -0.7079  -0.6749  -0.6084  -0.5874  -0.5485  -0.5139
 -0.4803  -0.4584  -0.4440  -0.4286  -0.4221  -0.4152  -0.3919  -0.3751
 -0.3709  -0.3598  -0.3448  -0.3357  -0.2917  -0.2848  -0.2314  -0.2056

          Ground-State Mulliken Net Atomic Charges

     Atom                 Charge (a.u.)
  ----------------------------------------
      1 C                    -0.350649
      2 C                    -0.087410
      3 C                    -0.203761
      4 S                     0.241929
      5 C                    -0.406192
      6 C                     0.167149
      7 C                    -0.522975
      8 C                     0.113839
      9 C                    -0.135403
     10 C                    -0.346675
     11 H                     0.143789
     12 H                     0.160996
     13 H                     0.137491
     14 H                     0.163604
     15 H                     0.154205
     16 H                     0.170096
     17 H                     0.163150
     18 H                     0.148800
     19 H                     0.145961
     20 H                     0.142055
  ----------------------------------------
  Sum of atomic charges =     0.000000

                    Cartesian Multipole Moments
 -----------------------------------------------------------------
    Charge (ESU x 10^10)
                 0.0000
    Dipole Moment (Debye)
         X      -0.6475      Y      -0.3754      Z       0.0904
       Tot       0.7539
    Quadrupole Moments (Debye-Ang)
        XX     -61.0315     XY      -1.9342     YY     -62.8692
        XZ       1.6656     YZ      -0.0367     ZZ     -69.3429

 Total job time:  23.51s(wall), 23.42s(cpu)
        *  Thank you very much for using Q-Chem.  Have a nice day.  *
