 Q-Chem 5.2, Q-Chem, Inc., Pleasanton, CA (2019)
 Q-Chem 5.2.1 for Intel X86 EM64T Linux

User input:
--------------------------------------------------------------
$molecule
0 1
C        -3.89026085940000    0.77845049160000    0.16890331870000
C        -2.92948181420000   -0.13434094620000    0.09492810660000
C        -1.49744980360000    0.12061334620000   -0.00034818120000
C        -0.92961363920000    1.39396863180000   -0.08548966060000
C         0.44305716480000    1.49555985550000   -0.15433633280000
C         1.24571414410000    0.35205068730000   -0.12139649400000
C         2.69446442890000    0.52733624210000   -0.16777929840000
C         3.60346708550000   -0.19786947910000    0.47005069620000
C         0.58031847430000   -0.88656174430000   -0.07926532850000
C         1.29001732240000   -2.20404875810000   -0.14165457390000
N        -0.73619696810000   -0.97183680120000   -0.02139361060000
H        -4.92657217070000    0.49527198560000    0.23924534920000
H        -3.69173138380000    1.83696477120000    0.16461680700000
H        -3.17475976580000   -1.18766865660000    0.10855257160000
H        -1.54579587430000    2.27836544430000   -0.10463866050000
H         0.91269338150000    2.46814696480000   -0.21948206040000
H         3.01915097010000    1.37909601900000   -0.75548954050000
H         3.34365648170000   -1.01854252740000    1.11448676620000
H         4.65317048580000    0.03063625810000    0.39163364900000
H         2.19139946580000   -2.13725451550000   -0.74566730660000
H         0.61395091540000   -2.94485625740000   -0.56059297300000
H         1.56365034390000   -2.53300018540000    0.85993101900000
$end

$rem
BASIS = 6-31G*
GUI = 2
METHOD = B3LYP
PRINT_ORBITALS false
MOLDEN_FORMAT false
--------------------------------------------------------------

             Standard Nuclear Orientation (Angstroms)
    I     Atom           X                Y                Z
 ----------------------------------------------------------------
    1      C       3.9819970505    -0.2024298421     0.1741465462
    2      C       2.8979128794     0.5581828378     0.0847777845
    3      C       1.5188131962     0.0944067667    -0.0034875053
    4      C       1.1438071351    -1.2497721628    -0.0641020605
    5      C      -0.1990769768    -1.5526777960    -0.1288802714
    6      C      -1.1606794944    -0.5387211396    -0.1158812592
    7      C      -2.5680481875    -0.9252440392    -0.1567124713
    8      C      -3.5742456209    -0.3293495934     0.4689973691
    9      C      -0.6840263416     0.7845933708    -0.0977797003
   10      C      -1.5790597681     1.9824705813    -0.1834666804
   11      N       0.6057123492     1.0629289923    -0.0435830913
   12      H       4.9655410496     0.2308091077     0.2375848295
   13      H       3.9407338827    -1.2785046493     0.1898043640
   14      H       2.9861691067     1.6361519108     0.0784784922
   15      H       1.8829611448    -2.0345284696    -0.0678225254
   16      H      -0.5210418334    -2.5846262695    -0.1752354879
   17      H      -2.7637326850    -1.8261569624    -0.7280117610
   18      H      -3.4382464413     0.5323644866     1.0976918242
   19      H      -4.5790397371    -0.7106279760     0.3964927982
   20      H      -2.4602261446     1.7731011917    -0.7847094734
   21      H      -1.0183700208     2.8064397123    -0.6171402885
   22      H      -1.8990979976     2.2863210707     0.8122783590
 ----------------------------------------------------------------

    9    -442.4000362777      2.60e-06  Convergence criterion met
 Total energy in the final basis set =     -442.4000362777

                    Orbital Energies (a.u.)
 --------------------------------------------------------------

 Alpha MOs
 -- Occupied --
-14.3156 -10.2230 -10.2214 -10.2007 -10.1981 -10.1954 -10.1907 -10.1854
-10.1845 -10.1824 -10.1709  -0.9462  -0.8249  -0.8046  -0.7697  -0.7409
 -0.6971  -0.6454  -0.6108  -0.5807  -0.5559  -0.5031  -0.4984  -0.4668
 -0.4476  -0.4301  -0.4301  -0.4232  -0.4046  -0.3901  -0.3828  -0.3665
 -0.3564  -0.3478  -0.3170  -0.2787  -0.2693  -0.2453  -0.2184

          Ground-State Mulliken Net Atomic Charges

     Atom                 Charge (a.u.)
  ----------------------------------------
      1 C                    -0.347800
      2 C                    -0.088700
      3 C                     0.300186
      4 C                    -0.174489
      5 C                    -0.153498
      6 C                     0.109340
      7 C                    -0.138030
      8 C                    -0.336483
      9 C                     0.258010
     10 C                    -0.515105
     11 N                    -0.542538
     12 H                     0.148327
     13 H                     0.141797
     14 H                     0.143491
     15 H                     0.131776
     16 H                     0.135705
     17 H                     0.135164
     18 H                     0.151315
     19 H                     0.145331
     20 H                     0.161739
     21 H                     0.171403
     22 H                     0.163062
  ----------------------------------------
  Sum of atomic charges =     0.000000

                    Cartesian Multipole Moments
 -----------------------------------------------------------------
    Charge (ESU x 10^10)
                 0.0000
    Dipole Moment (Debye)
         X      -0.6745      Y      -1.5041      Z       0.0019
       Tot       1.6484
    Quadrupole Moments (Debye-Ang)
        XX     -57.5452     XY      -1.5778     YY     -61.7508
        XZ      -0.0068     YZ       1.3219     ZZ     -67.4719

 Total job time:  24.31s(wall), 24.23s(cpu)
        *  Thank you very much for using Q-Chem.  Have a nice day.  *
