 Q-Chem 5.2, Q-Chem, Inc., Pleasanton, CA (2019)
 Q-Chem 5.2.1 for Intel X86 EM64T Linux

User input:
--------------------------------------------------------------
$molecule
0 1
C        -4.54346795660000    0.06229236610000    0.48895358970000
C        -3.75104170340000   -0.82160613290000   -0.10288263270000
C        -2.29004736030000   -0.78204536530000   -0.11720191260000
C        -1.60295087290000   -1.99440448340000   -0.03595656360000
C        -0.22743232040000   -2.04322473360000    0.02352384150000
C         0.48896053590000   -0.85461473680000   -0.01830965440000
O         1.89019601800000   -1.00286839500000    0.04681388860000
C         2.67379804160000    0.05057675870000    0.04020414030000
F         2.60505209770000    0.79181964130000   -1.08222317970000
F         2.45739857820000    0.91508075150000    1.04997799520000
F         3.93709277590000   -0.35035612440000    0.14987593370000
C        -0.15723694180000    0.35753287850000   -0.13497333710000
C        -1.55209788080000    0.41060990410000   -0.18441758380000
C        -2.20069528130000    1.70627259920000   -0.38005740780000
C        -1.76917469740000    2.85238661580000    0.12854081460000
H        -5.61445191900000   -0.04939004330000    0.47859004690000
H        -4.15457211700000    0.91050326770000    1.02618712180000
H        -4.18537211880000   -1.69231881080000   -0.57914964740000
H        -2.16675794200000   -2.91483015200000   -0.00002779460000
H         0.30533786400000   -2.97653978950000    0.09663354570000
H         0.38903331200000    1.28351362200000   -0.21365177460000
H        -3.09269004840000    1.68796439970000   -0.99311008240000
H        -0.91208899880000    2.90548892500000    0.77910730630000
H        -2.27500216070000    3.78184470460000   -0.06838697420000
$end

$rem
BASIS = 6-31G*
GUI = 2
METHOD = B3LYP
PRINT_ORBITALS false
MOLDEN_FORMAT false
--------------------------------------------------------------

             Standard Nuclear Orientation (Angstroms)
    I     Atom           X                Y                Z
 ----------------------------------------------------------------
    1      C       4.4066178242    -0.0173600692     0.4796673913
    2      C       3.6052165678     0.8619857243    -0.1068418067
    3      C       2.1446194633     0.8092242621    -0.1189617425
    4      C       1.4466871478     2.0149119492    -0.0310714400
    5      C       0.0708834872     2.0509678547     0.0308711360
    6      C      -0.6347634821     0.8561034112    -0.0152136442
    7      O      -2.0371757966     0.9913284125     0.0528671799
    8      C      -2.8111967126    -0.0691485553     0.0427313797
    9      F      -2.7376022473    -0.8046288647    -1.0831738888
   10      F      -2.5852757486    -0.9362309537     1.0481999032
   11      F      -4.0778925251     0.3197929138     0.1562871668
   12      C       0.0222104960    -0.3495832694    -0.1384542889
   13      C       1.4174111058    -0.3897656779    -0.1904117326
   14      C       2.0774108157    -1.6785824885    -0.3930122256
   15      C       1.6571576224    -2.8308671526     0.1110580192
   16      H       5.4765255069     0.1040896493     0.4680687880
   17      H       4.0263322569    -0.8715000001     1.0136612503
   18      H       4.0308324146     1.7387618608    -0.5798412822
   19      H       2.0021784253     2.9402470370     0.0081346164
   20      H      -0.4702106791     2.9790643243     0.1091024481
   21      H      -0.5157656994    -1.2801196432    -0.2204633993
   22      H       2.9681776830    -1.6493891492    -1.0074270476
   23      H       0.8016767026    -2.8947062402     0.7627707449
   24      H       2.1710684384    -3.7547889295    -0.0909284622
 ----------------------------------------------------------------

    9    -799.2938242954      2.54e-06  Convergence criterion met
 Total energy in the final basis set =     -799.2938242954

                    Orbital Energies (a.u.)
 --------------------------------------------------------------

 Alpha MOs
 -- Occupied --
-24.7295 -24.7276 -24.7271 -19.2244 -10.4819 -10.2717 -10.2108 -10.2056
-10.2031 -10.2024 -10.2017 -10.1984 -10.1957 -10.1872 -10.1853  -1.3261
 -1.2258  -1.2206  -1.1216  -0.8856  -0.8167  -0.7989  -0.7560  -0.7428
 -0.6988  -0.6513  -0.6489  -0.6058  -0.6017  -0.5843  -0.5813  -0.5611
 -0.5108  -0.4871  -0.4807  -0.4705  -0.4651  -0.4619  -0.4494  -0.4449
 -0.4411  -0.4330  -0.4210  -0.4056  -0.4022  -0.4012  -0.3971  -0.3811
 -0.3664  -0.3573  -0.3494  -0.3015  -0.2920  -0.2509  -0.2264

          Ground-State Mulliken Net Atomic Charges

     Atom                 Charge (a.u.)
  ----------------------------------------
      1 C                    -0.342788
      2 C                    -0.138012
      3 C                     0.110247
      4 C                    -0.194134
      5 C                    -0.164657
      6 C                     0.342581
      7 O                    -0.520453
      8 C                     0.974600
      9 F                    -0.276097
     10 F                    -0.277274
     11 F                    -0.253047
     12 C                    -0.226699
     13 C                     0.090818
     14 C                    -0.137770
     15 C                    -0.344795
     16 H                     0.146512
     17 H                     0.164794
     18 H                     0.136675
     19 H                     0.139360
     20 H                     0.152616
     21 H                     0.166147
     22 H                     0.154217
     23 H                     0.150091
     24 H                     0.147067
  ----------------------------------------
  Sum of atomic charges =     0.000000

                    Cartesian Multipole Moments
 -----------------------------------------------------------------
    Charge (ESU x 10^10)
                 0.0000
    Dipole Moment (Debye)
         X       2.5949      Y       0.5417      Z      -0.0895
       Tot       2.6523
    Quadrupole Moments (Debye-Ang)
        XX     -83.1104     XY       0.2156     YY     -76.7823
        XZ      -1.0049     YZ      -0.9242     ZZ     -86.4781

 Total job time:  39.04s(wall), 38.90s(cpu)
        *  Thank you very much for using Q-Chem.  Have a nice day.  *
