 Q-Chem 5.2, Q-Chem, Inc., Pleasanton, CA (2019)
 Q-Chem 5.2.1 for Intel X86 EM64T Linux

User input:
--------------------------------------------------------------
$molecule
0 1
C        -4.49007605060000   -0.62991835550000    0.26957581070000
C        -3.63332049190000    0.25672493490000   -0.22113864800000
C        -2.18106119260000    0.15432572680000   -0.12997497630000
C        -1.52606993530000   -1.06509425980000   -0.10318093620000
C        -0.13159671590000   -1.14316162440000   -0.05968474790000
C         0.53014154880000   -2.43791884020000    0.04613213210000
C         1.62719084810000   -2.66729741020000    0.75341397690000
C         0.56154288730000    0.07037086000000   -0.10834992970000
C         2.04637569280000    0.12908297690000   -0.27972268800000
O         2.65591170810000   -0.42720961930000   -1.15698459770000
O         2.61483332100000    0.91333219660000    0.64029677460000
C         4.01798171510000    1.09656645520000    0.51797601330000
N        -0.04266046380000    1.25031455130000   -0.09990176810000
C        -1.36710617130000    1.31412399100000   -0.08541979660000
N        -1.89565722610000    2.57290215510000   -0.08283570930000
H        -5.55377756810000   -0.50764172870000    0.15905645520000
H        -4.16427201570000   -1.50197662720000    0.81102233490000
H        -4.00723290700000    1.13173181630000   -0.73838581860000
H        -2.10274702210000   -1.97852905910000   -0.13094787400000
H         0.03366225000000   -3.25399307760000   -0.46385542750000
H         2.11867352780000   -1.88779290930000    1.31159631920000
H         2.07115145830000   -3.64629580450000    0.80690849430000
H         4.32866323120000    1.66772680950000    1.38907244940000
H         4.24909431230000    1.64088113590000   -0.39979041310000
H         4.52615785760000    0.12995334530000    0.48797102170000
H        -1.23044924360000    3.30818203690000    0.09133313390000
H        -2.82606572920000    2.70723088560000    0.27174684690000
$end

$rem
BASIS = 6-31G*
GUI = 2
METHOD = B3LYP
PRINT_ORBITALS false
MOLDEN_FORMAT false
--------------------------------------------------------------

             Standard Nuclear Orientation (Angstroms)
    I     Atom           X                Y                Z
 ----------------------------------------------------------------
    1      C       4.4362888824    -0.8431449973    -0.3392346211
    2      C       3.6353151109     0.0988270304     0.1425296451
    3      C       2.1779884090     0.0638426128     0.0893463790
    4      C       1.4653572264    -1.1227720378     0.1179652531
    5      C       0.0680960718    -1.1347551187     0.1102410580
    6      C      -0.6568522609    -2.3987423503     0.0625212070
    7      C      -1.7811242752    -2.5970289164    -0.6105866425
    8      C      -0.5651747217     0.1117556678     0.1357530421
    9      C      -2.0407248142     0.2474475752     0.3404084262
   10      O      -2.6535692125    -0.2508920294     1.2496187686
   11      O      -2.5944239419     1.0288914863    -0.5909290073
   12      C      -3.9837372388     1.2834116994    -0.4412941112
   13      N       0.0939745373     1.2603027685     0.0744180010
   14      C       1.4191636386     1.2596082862     0.0263433934
   15      N       2.0066627167     2.4906957363    -0.0299050275
   16      H       5.5070554685    -0.7689482239    -0.2581126345
   17      H       4.0558246769    -1.7150602182    -0.8440207864
   18      H       4.0633448659     0.9706019822     0.6218949905
   19      H       1.9985225570    -2.0616564219     0.1617995023
   20      H      -0.1869271433    -3.2213841316     0.5869132831
   21      H      -2.2490177963    -1.8126536732    -1.1820594322
   22      H      -2.2722895374    -3.5546498060    -0.6215164102
   23      H      -4.2889140718     1.8412150553    -1.3229282034
   24      H      -4.1654124372     1.8668551201     0.4634570231
   25      H      -4.5363212015     0.3438828688    -0.3676684622
   26      H       1.3729249386     3.2513891778    -0.2120996134
   27      H       2.9331179663     2.5687263737    -0.4107263370
 ----------------------------------------------------------------

    9    -686.3082060509      6.42e-06  Convergence criterion met
 Total energy in the final basis set =     -686.3082060509

                    Orbital Energies (a.u.)
 --------------------------------------------------------------

 Alpha MOs
 -- Occupied --
-19.1860 -19.1256 -14.3500 -14.3225 -10.3049 -10.2616 -10.2336 -10.2287
-10.2018 -10.2008 -10.2003 -10.1950 -10.1892 -10.1867 -10.1752  -1.1030
 -1.0099  -0.9744  -0.9012  -0.8317  -0.8047  -0.7573  -0.7433  -0.7152
 -0.6640  -0.6316  -0.5921  -0.5818  -0.5587  -0.5423  -0.5313  -0.4937
 -0.4890  -0.4723  -0.4680  -0.4602  -0.4522  -0.4374  -0.4210  -0.4179
 -0.4051  -0.3966  -0.3846  -0.3677  -0.3540  -0.3476  -0.3320  -0.3147
 -0.2984  -0.2805  -0.2755  -0.2509  -0.2455  -0.2023

          Ground-State Mulliken Net Atomic Charges

     Atom                 Charge (a.u.)
  ----------------------------------------
      1 C                    -0.336938
      2 C                    -0.149584
      3 C                     0.143243
      4 C                    -0.226230
      5 C                     0.132601
      6 C                    -0.117584
      7 C                    -0.336563
      8 C                     0.195728
      9 C                     0.542020
     10 O                    -0.466732
     11 O                    -0.425863
     12 C                    -0.219498
     13 N                    -0.549166
     14 C                     0.421379
     15 N                    -0.776388
     16 H                     0.147031
     17 H                     0.148079
     18 H                     0.138004
     19 H                     0.138739
     20 H                     0.133189
     21 H                     0.147378
     22 H                     0.143628
     23 H                     0.163178
     24 H                     0.168624
     25 H                     0.168222
     26 H                     0.342002
     27 H                     0.331501
  ----------------------------------------
  Sum of atomic charges =     0.000000

                    Cartesian Multipole Moments
 -----------------------------------------------------------------
    Charge (ESU x 10^10)
                 0.0000
    Dipole Moment (Debye)
         X       2.1948      Y       1.0130      Z      -2.1985
       Tot       3.2675
    Quadrupole Moments (Debye-Ang)
        XX     -71.6829     XY      -0.0571     YY     -75.9744
        XZ       4.0216     YZ      -1.1380     ZZ     -91.8169

 Total job time:  44.32s(wall), 44.19s(cpu)
        *  Thank you very much for using Q-Chem.  Have a nice day.  *
