 Q-Chem 5.2, Q-Chem, Inc., Pleasanton, CA (2019)
 Q-Chem 5.2.1 for Intel X86 EM64T Linux

User input:
--------------------------------------------------------------
$molecule
0 1
C        -4.10723663010000   -0.24847424860000    0.07530427930000
C        -3.03440133960000    0.52424646900000   -0.04776027310000
C        -1.64812565740000    0.08117740090000   -0.03188190420000
C        -1.26581879620000   -1.26776672820000    0.01673119280000
N        -0.01746812420000   -1.66876532860000    0.02734710240000
C         0.95318277020000   -0.75840492770000   -0.00891715300000
C         2.28159918580000   -1.25874600910000    0.01295910680000
N         3.36007624660000   -1.64712700190000    0.02830132880000
C         0.71358990590000    0.63014815440000   -0.06165971340000
C         1.82919390520000    1.56636584150000   -0.10435911490000
C         1.75200122900000    2.86745855490000    0.14829069120000
C        -0.62227473700000    1.02315028740000   -0.07829616870000
H        -5.09905555470000    0.16904789290000    0.05458389980000
H        -4.04659631740000   -1.31525539290000    0.20412498000000
H        -3.16290303910000    1.59372286160000   -0.16561265130000
H        -1.99896548620000   -2.06125133140000    0.03852685330000
H         2.78806042380000    1.12256900040000   -0.34030184140000
H         0.83141167200000    3.35640209130000    0.41963531730000
H         2.62467701430000    3.49531577510000    0.10520304000000
H        -0.87084443510000    2.07292550550000   -0.14104968110000
$end

$rem
BASIS = 6-31G*
GUI = 2
METHOD = B3LYP
PRINT_ORBITALS false
MOLDEN_FORMAT false
--------------------------------------------------------------

             Standard Nuclear Orientation (Angstroms)
    I     Atom           X                Y                Z
 ----------------------------------------------------------------
    1      C       4.0614067779    -0.1553411491    -0.0704273537
    2      C       2.9617140850     0.5786533754     0.0526408021
    3      C       1.5920442303     0.0867145635     0.0346607240
    4      C       1.2578773025    -1.2748672325    -0.0163246635
    5      N       0.0245479884    -1.7198776164    -0.0288361226
    6      C      -0.9778206217    -0.8445755796     0.0077402147
    7      C      -2.2876300824    -1.3916889794    -0.0162607447
    8      N      -3.3516356511    -1.8180570128    -0.0333018671
    9      C      -0.7876869540     0.5515217795     0.0627632316
   10      C      -1.9358410107     1.4475135050     0.1056604319
   11      C      -1.9045984547     2.7509024818    -0.1450065988
   12      C       0.5333788669     0.9916359448     0.0813753454
   13      H       5.0377697174     0.2970677400    -0.0480564031
   14      H       4.0387746426    -1.2234078233    -0.2008704307
   15      H       3.0520801871     1.6518371496     0.1721907017
   16      H       2.0187309818    -2.0418133782    -0.0385107783
   17      H      -2.8785960373     0.9696309447     0.3399483427
   18      H      -1.0016624770     3.2725985670    -0.4146705292
   19      H      -2.7990393141     3.3473445087    -0.1019169422
   20      H       0.7444911042     2.0494724391     0.1459236323
 ----------------------------------------------------------------

    9    -495.3203929116      5.49e-06  Convergence criterion met
 Total energy in the final basis set =     -495.3203929116

                    Orbital Energies (a.u.)
 --------------------------------------------------------------

 Alpha MOs
 -- Occupied --
-14.3525 -14.3351 -10.2650 -10.2407 -10.2330 -10.2288 -10.2254 -10.2243
-10.2152 -10.2111 -10.2057 -10.2039  -0.9789  -0.9100  -0.8546  -0.8373
 -0.7731  -0.7697  -0.6835  -0.6726  -0.6129  -0.5811  -0.5682  -0.5375
 -0.4952  -0.4827  -0.4583  -0.4504  -0.4403  -0.4302  -0.4093  -0.3920
 -0.3758  -0.3688  -0.3606  -0.3409  -0.3358  -0.3262  -0.2764  -0.2673
 -0.2465

          Ground-State Mulliken Net Atomic Charges

     Atom                 Charge (a.u.)
  ----------------------------------------
      1 C                    -0.342690
      2 C                    -0.117644
      3 C                     0.165406
      4 C                    -0.002622
      5 N                    -0.456347
      6 C                     0.226011
      7 C                     0.297371
      8 N                    -0.482065
      9 C                     0.178703
     10 C                    -0.129566
     11 C                    -0.338712
     12 C                    -0.229327
     13 H                     0.158169
     14 H                     0.157605
     15 H                     0.137986
     16 H                     0.150884
     17 H                     0.167438
     18 H                     0.149339
     19 H                     0.161495
     20 H                     0.148566
  ----------------------------------------
  Sum of atomic charges =     0.000000

                    Cartesian Multipole Moments
 -----------------------------------------------------------------
    Charge (ESU x 10^10)
                 0.0000
    Dipole Moment (Debye)
         X       4.3912      Y       4.0151      Z       0.1081
       Tot       5.9511
    Quadrupole Moments (Debye-Ang)
        XX     -71.1983     XY     -10.2308     YY     -69.0286
        XZ      -0.7399     YZ      -0.1955     ZZ     -71.1531

 Total job time:  24.40s(wall), 24.31s(cpu)
        *  Thank you very much for using Q-Chem.  Have a nice day.  *
