 Q-Chem 5.2, Q-Chem, Inc., Pleasanton, CA (2019)
 Q-Chem 5.2.1 for Intel X86 EM64T Linux

User input:
--------------------------------------------------------------
$molecule
0 1
C        -3.68744209020000   -1.64408858520000   -0.03935657630000
C        -2.96728227620000   -0.55050882020000    0.20442907310000
C        -1.53985682110000   -0.44072217300000    0.07253691070000
N        -0.72450732210000   -1.54851308940000   -0.00533116340000
C         0.56666958410000   -1.16359615710000   -0.02437708690000
N         1.63786258520000   -1.99122245360000   -0.08935678340000
C         2.77349586250000   -1.38448396040000   -0.08958167860000
N         2.93256738170000   -0.04021715830000   -0.02934698520000
C         1.88117319530000    0.89987053910000    0.04121750050000
O         2.14028919720000    2.08263593710000    0.10184940750000
C         0.60866665850000    0.23590415050000    0.03779774520000
C        -0.73656505480000    0.69794419800000    0.08796636950000
C        -1.10504592860000    2.09592088090000    0.11993109170000
C        -2.23049613230000    2.61693712600000   -0.35561891990000
H        -4.75326761560000   -1.65354057480000    0.10372316060000
H        -3.25395007120000   -2.55962284560000   -0.40667863460000
H        -3.45736498950000    0.35039731920000    0.54526505980000
H        -1.04122500670000   -2.50347588970000   -0.00527200160000
H         3.67075392630000   -1.98491910090000   -0.13997067340000
H         3.86300757940000    0.35922074870000   -0.03077150970000
H        -0.33810756390000    2.74260171330000    0.52562917740000
H        -2.98638842500000    2.01978644640000   -0.83704913770000
H        -2.41982666480000    3.67530747620000   -0.30269453620000
$end

$rem
BASIS = 6-31G*
GUI = 2
METHOD = B3LYP
PRINT_ORBITALS false
MOLDEN_FORMAT false
--------------------------------------------------------------

             Standard Nuclear Orientation (Angstroms)
    I     Atom           X                Y                Z
 ----------------------------------------------------------------
    1      C       3.6188541791    -1.6783085101     0.0314141888
    2      C       2.9079976292    -0.5784352930    -0.2113617878
    3      C       1.4817839922    -0.4560900906    -0.0774275011
    4      N       0.6568295414    -1.5566621791     0.0016306362
    5      C      -0.6308813729    -1.1603972299     0.0225181067
    6      N      -1.7092220829    -1.9785641386     0.0890486708
    7      C      -2.8394704125    -1.3618551952     0.0908878781
    8      N      -2.9867919289    -0.0162410218     0.0308539795
    9      C      -1.9272675515     0.9145571266    -0.0412352780
   10      O      -2.1760514048     2.0995565709    -0.1015198420
   11      C      -0.6606498054     0.2394180021    -0.0396247255
   12      C       0.6885226683     0.6896013003    -0.0917293622
   13      C       1.0692457323     2.0842808550    -0.1242500042
   14      C       2.1999174816     2.5953761883     0.3496770554
   15      H       4.6843492105    -1.6971408274    -0.1131917713
   16      H       3.1778485617    -2.5899896710     0.3993752105
   17      H       3.4055008982     0.3181204968    -0.5529175238
   18      H       0.9651305865    -2.5143752192     0.0011370992
   19      H      -3.7419046469    -1.9543705400     0.1425740515
   20      H      -3.9136779256     0.3913696058     0.0336031003
   21      H       0.3074477198     2.7376828881    -0.5288622410
   22      H       2.9512142206     1.9916001712     0.8300361691
   23      H       2.3984786630     3.6520389842     0.2964602137
 ----------------------------------------------------------------

    9    -625.9463363170      5.62e-06  Convergence criterion met
 Total energy in the final basis set =     -625.9463363170

                    Orbital Energies (a.u.)
 --------------------------------------------------------------

 Alpha MOs
 -- Occupied --
-19.1134 -14.3961 -14.3942 -14.3402 -10.2940 -10.2801 -10.2595 -10.2290
-10.2010 -10.1949 -10.1883 -10.1879 -10.1843 -10.1734  -1.0493  -1.0157
 -0.9828  -0.9057  -0.8217  -0.8033  -0.7630  -0.7311  -0.6699  -0.6649
 -0.6318  -0.6023  -0.5654  -0.5547  -0.5393  -0.5040  -0.4858  -0.4704
 -0.4637  -0.4542  -0.4432  -0.4272  -0.4197  -0.4124  -0.3914  -0.3760
 -0.3713  -0.3525  -0.3150  -0.3002  -0.2886  -0.2745  -0.2584  -0.2390
 -0.1953

          Ground-State Mulliken Net Atomic Charges

     Atom                 Charge (a.u.)
  ----------------------------------------
      1 C                    -0.375278
      2 C                    -0.082931
      3 C                     0.278394
      4 N                    -0.735505
      5 C                     0.483090
      6 N                    -0.497296
      7 C                     0.240339
      8 N                    -0.622315
      9 C                     0.567705
     10 O                    -0.518498
     11 C                    -0.014289
     12 C                     0.005235
     13 C                    -0.103973
     14 C                    -0.358630
     15 H                     0.151636
     16 H                     0.128217
     17 H                     0.151531
     18 H                     0.337893
     19 H                     0.166470
     20 H                     0.345313
     21 H                     0.166015
     22 H                     0.143253
     23 H                     0.143623
  ----------------------------------------
  Sum of atomic charges =     0.000000

                    Cartesian Multipole Moments
 -----------------------------------------------------------------
    Charge (ESU x 10^10)
                -0.0000
    Dipole Moment (Debye)
         X      -0.2576      Y      -2.9957      Z       0.0115
       Tot       3.0068
    Quadrupole Moments (Debye-Ang)
        XX     -62.7084     XY       3.7066     YY     -82.9255
        XZ      -0.3633     YZ      -0.5197     ZZ     -82.4232

 Total job time:  36.61s(wall), 36.49s(cpu)
        *  Thank you very much for using Q-Chem.  Have a nice day.  *
