 Q-Chem 5.2, Q-Chem, Inc., Pleasanton, CA (2019)
 Q-Chem 5.2.1 for Intel X86 EM64T Linux

User input:
--------------------------------------------------------------
$molecule
0 1
C         5.83321869580000   -0.35876215560000    0.73746016720000
C         5.03019753030000   -0.09762325060000   -0.28191161140000
C         3.56318142780000   -0.03987509710000   -0.19139577750000
C         2.92767022610000    0.87524077470000    0.66427884390000
C         3.65179157010000    1.82087528960000    1.43714696840000
C         3.01785902520000    2.69097696990000    2.26972549490000
C         1.61341236950000    2.67516578060000    2.38500470830000
C         0.87795896700000    1.80658607990000    1.64066729630000
C         1.49992643940000    0.89394111660000    0.74860049450000
C         0.73986794020000    0.02327625460000   -0.04214640690000
C        -0.73920164640000    0.04053840100000    0.04849009740000
C        -1.47449976420000    0.97317757700000   -0.69355183290000
C        -0.82692725420000    1.91841311530000   -1.53184001960000
C        -1.53791238620000    2.84558527580000   -2.22769691960000
C        -2.94191662430000    2.89009098860000   -2.11468719580000
C        -3.60020590280000    1.99082104790000   -1.33359652440000
C        -2.90252993370000    0.98564996700000   -0.61333953670000
C        -3.56369445800000    0.04020432770000    0.18822928840000
C        -5.03210338060000    0.01263469300000    0.26976046450000
C        -5.83535738680000   -0.17202995850000   -0.76602665330000
C        -2.82161541530000   -0.89121857200000    0.93381069060000
C        -3.45067917530000   -1.87752611430000    1.73798688280000
C        -2.72202603880000   -2.77384671880000    2.45815214510000
C        -1.31385269940000   -2.74567017700000    2.41688312320000
C        -0.67067173400000   -1.82954029600000    1.64381741680000
C        -1.39459224070000   -0.88392443980000    0.87194962940000
C         1.37015351820000   -0.87092539340000   -0.91705729170000
C         0.62122996740000   -1.75439372600000   -1.73720259950000
C         1.23969294530000   -2.64255349140000   -2.56138827810000
C         2.64662368220000   -2.70344533850000   -2.60899821030000
C         3.39894610490000   -1.86633071900000   -1.84335630270000
C         2.79639679300000   -0.91039887220000   -0.98408444420000
H         6.90385050080000   -0.39620676130000    0.62407874110000
H         5.44748691230000   -0.56001973110000    1.72360451870000
H         5.44647649630000    0.07475222760000   -1.26803037810000
H         4.72690556440000    1.84600372420000    1.34524897980000
H         3.58752404030000    3.40459034270000    2.84710390200000
H         1.12865110750000    3.36600908470000    3.05908566890000
H        -0.19993841580000    1.79953913910000    1.71067955280000
H         0.25068762210000    1.88839831130000   -1.59993821060000
H        -1.03370805720000    3.56080859930000   -2.86084548570000
H        -3.49160576410000    3.64902153950000   -2.65226662910000
H        -4.67467498130000    2.03769779380000   -1.24263711150000
H        -5.44961466100000    0.13949299080000    1.26222939250000
H        -5.44889854360000   -0.32691847430000   -1.76023748920000
H        -6.90719679920000   -0.19032039140000   -0.65956591320000
H        -4.52938810960000   -1.91327637580000    1.76429409440000
H        -3.21814355130000   -3.51652701280000    3.06595518200000
H        -0.75233681630000   -3.46106409750000    2.99960798230000
H         0.40849319720000   -1.80765404930000    1.60154367090000
H        -0.45695798600000   -1.70812592710000   -1.69015087380000
H         0.65921785290000   -3.31079850220000   -3.18038416190000
H         3.12273010190000   -3.42390517400000   -3.25814337920000
H         4.47637471570000   -1.92744359530000   -1.87513502920000
$end

$rem
BASIS = 6-31G*
GUI = 2
METHOD = B3LYP
PRINT_ORBITALS false
MOLDEN_FORMAT false
--------------------------------------------------------------

             Standard Nuclear Orientation (Angstroms)
    I     Atom           X                Y                Z
 ----------------------------------------------------------------
    1      C      -5.8465870305     0.2651566942     0.6671446076
    2      C      -5.0267999185     0.0422886962    -0.3479584855
    3      C      -3.5605141727    -0.0000646131    -0.2389790414
    4      C      -2.9250409354    -0.9308153273     0.5996910229
    5      C      -3.6474816309    -1.9063440183     1.3361180111
    6      C      -3.0138439446    -2.7914780091     2.1529261337
    7      C      -1.6113724454    -2.7617577239     2.2878338722
    8      C      -0.8770143654    -1.8639038723     1.5779484883
    9      C      -1.4984288880    -0.9344453390     0.7030208511
   10      C      -0.7388760127    -0.0329161476    -0.0528570708
   11      C       0.7389507564    -0.0346585278     0.0575277304
   12      C       1.4957603017    -0.9372581715    -0.6998747889
   13      C       0.8713760568    -1.8666312047    -1.5727765831
   14      C       1.6031909530    -2.7653476901    -2.2841980719
   15      C       3.0060084820    -2.7958587302    -2.1532327577
   16      C       3.6424495550    -1.9107081450    -1.3386254662
   17      C       2.9226353141    -0.9345452882    -0.6004762105
   18      C       3.5610972273    -0.0037749724     0.2359157855
   19      C       5.0278233380     0.0394170798     0.3382932451
   20      C       5.8424597869     0.2626064569    -0.6808862992
   21      C       2.7974758955     0.8974278099     0.9967295325
   22      C       3.4032940648     1.8685772503     1.8364177130
   23      C       2.6538771066     2.7355647241     2.5710407233
   24      C       1.2468461588     2.6913803371     2.5097149102
   25      C       0.6256155339     1.7893385370     1.7028695711
   26      C       1.3716109529     0.8744592581     0.9151406402
   27      C      -1.3686046573     0.8775288730    -0.9112609688
   28      C      -0.6199529976     1.7925377509    -1.6963218272
   29      C      -1.2384628011     2.6956766099    -2.5040297454
   30      C      -2.6452860344     2.7407110720    -2.5692133974
   31      C      -3.3971903782     1.8735094025    -1.8373947267
   32      C      -2.7942085776     0.9014595855    -0.9967095317
   33      H      -6.9159945035     0.2926848290     0.5401809644
   34      H      -5.4766246810     0.4435891301     1.6636705873
   35      H      -5.4276676381    -0.1076481241    -1.3440788228
   36      H      -4.7208711574    -1.9420123842     1.2288358063
   37      H      -3.5821584978    -3.5277707620     2.7024892792
   38      H      -1.1270162597    -3.4651252876     2.9491327828
   39      H       0.1996777259    -1.8456658436     1.6628935189
   40      H      -0.2055249333    -1.8478743963    -1.6547797141
   41      H       1.1165192933    -3.4687737791    -2.9437327167
   42      H       3.5723254599    -3.5327812150    -2.7040101271
   43      H       4.7161117618    -1.9469934854    -1.2342813987
   44      H       5.4335990405    -0.1099034417     1.3325028463
   45      H       5.4674022911     0.4403713266    -1.6756363190
   46      H       6.9124666586     0.2909949049    -0.5592822465
   47      H       4.4810207448     1.9167311564     1.8784833768
   48      H       3.1324568596     3.4670416478     3.2058903646
   49      H       0.6686484320     3.3833861055     3.1042502036
   50      H      -0.4525279892     1.7554808895     1.6452221138
   51      H       0.4580064246     1.7581279626    -1.6357967292
   52      H      -0.6582137866     3.3879115645    -3.0962969827
   53      H      -3.1216941984     3.4730932921    -3.2046508000
   54      H      -4.4747812075     1.9223417704    -1.8822331818
 ----------------------------------------------------------------

    9   -1232.6335550590      1.63e-06  Convergence criterion met
 Total energy in the final basis set =    -1232.6335550590

                    Orbital Energies (a.u.)
 --------------------------------------------------------------

 Alpha MOs
 -- Occupied --
-10.1948 -10.1948 -10.1937 -10.1937 -10.1922 -10.1922 -10.1918 -10.1917
-10.1916 -10.1916 -10.1915 -10.1915 -10.1910 -10.1908 -10.1847 -10.1846
-10.1833 -10.1833 -10.1828 -10.1827 -10.1827 -10.1827 -10.1824 -10.1824
-10.1819 -10.1819 -10.1810 -10.1810 -10.1795 -10.1795 -10.1793 -10.1793
 -0.8945  -0.8800  -0.8497  -0.8490  -0.8239  -0.8113  -0.8080  -0.7825
 -0.7554  -0.7491  -0.7491  -0.7452  -0.7380  -0.7372  -0.7079  -0.6885
 -0.6508  -0.6408  -0.6233  -0.6155  -0.6150  -0.5969  -0.5874  -0.5866
 -0.5626  -0.5456  -0.5344  -0.5314  -0.5258  -0.5237  -0.5033  -0.4865
 -0.4684  -0.4608  -0.4601  -0.4601  -0.4596  -0.4524  -0.4470  -0.4425
 -0.4375  -0.4277  -0.4235  -0.4227  -0.4154  -0.4111  -0.4049  -0.4025
 -0.3905  -0.3877  -0.3867  -0.3748  -0.3746  -0.3700  -0.3669  -0.3618
 -0.3564  -0.3426  -0.3417  -0.3343  -0.3327  -0.3269  -0.3050  -0.3020
 -0.3011  -0.2935  -0.2889  -0.2647  -0.2637  -0.2570  -0.2466  -0.2396
 -0.2359  -0.1874  -0.1856

          Ground-State Mulliken Net Atomic Charges

     Atom                 Charge (a.u.)
  ----------------------------------------
      1 C                    -0.319629
      2 C                    -0.166166
      3 C                     0.010375
      4 C                     0.076742
      5 C                    -0.197662
      6 C                    -0.134695
      7 C                    -0.134638
      8 C                    -0.190499
      9 C                     0.137307
     10 C                    -0.159367
     11 C                    -0.159398
     12 C                     0.137554
     13 C                    -0.190463
     14 C                    -0.134657
     15 C                    -0.134691
     16 C                    -0.197627
     17 C                     0.076638
     18 C                     0.010451
     19 C                    -0.166250
     20 C                    -0.319540
     21 C                     0.079235
     22 C                    -0.198470
     23 C                    -0.129869
     24 C                    -0.135954
     25 C                    -0.186931
     26 C                     0.134136
     27 C                     0.134337
     28 C                    -0.186880
     29 C                    -0.135976
     30 C                    -0.129854
     31 C                    -0.198485
     32 C                     0.079131
     33 H                     0.143699
     34 H                     0.154407
     35 H                     0.146807
     36 H                     0.138835
     37 H                     0.125639
     38 H                     0.127860
     39 H                     0.145947
     40 H                     0.145991
     41 H                     0.127855
     42 H                     0.125635
     43 H                     0.138830
     44 H                     0.146764
     45 H                     0.154418
     46 H                     0.143696
     47 H                     0.130144
     48 H                     0.126864
     49 H                     0.128654
     50 H                     0.146995
     51 H                     0.147049
     52 H                     0.128645
     53 H                     0.126860
     54 H                     0.130200
  ----------------------------------------
  Sum of atomic charges =     0.000000

                    Cartesian Multipole Moments
 -----------------------------------------------------------------
    Charge (ESU x 10^10)
                -0.0000
    Dipole Moment (Debye)
         X       0.0008      Y       0.1322      Z      -0.0022
       Tot       0.1322
    Quadrupole Moments (Debye-Ang)
        XX    -160.4797     XY       0.0176     YY    -176.0672
        XZ       1.0356     YZ       0.0014     ZZ    -175.8921

 Total job time:  277.27s(wall), 276.53s(cpu)
        *  Thank you very much for using Q-Chem.  Have a nice day.  *
