 Q-Chem 5.2, Q-Chem, Inc., Pleasanton, CA (2019)
 Q-Chem 5.2.1 for Intel X86 EM64T Linux

User input:
--------------------------------------------------------------
$molecule
0 1
C        -1.78031329330000    0.42735323220000    3.35010457880000
C        -1.95367968750000   -0.47828299790000    2.39023349300000
C        -1.79436497270000   -0.23608413700000    0.98193255370000
C        -1.47962017090000    0.91980795060000    0.31442848010000
C        -1.37975824710000    0.77066480220000   -1.08107911900000
C        -0.98026557510000    1.89121371660000   -1.98902720300000
C         0.50330832850000    1.83733069640000   -2.38835026120000
C         1.45763963370000    1.94318108800000   -1.19404887820000
C         1.81934100800000    0.58638419770000   -0.59009129060000
C         2.55417353910000    0.72886422730000    0.74017314230000
C         2.86440471350000   -0.63211591330000    1.35875578760000
C         3.48830783220000   -0.53877528980000    2.75136539170000
C         4.89130553410000    0.05716508480000    2.74332797970000
C        -1.63662307940000   -0.52085188490000   -1.49507509100000
C        -1.62966226430000   -1.03403321560000   -2.83613886610000
C        -1.82136940600000   -2.30889671470000   -3.16630527130000
S        -1.99166956220000   -1.55065004880000   -0.13751147460000
H        -1.91312069730000    0.17523143210000    4.38719925490000
H        -1.50231130380000    1.44453903220000    3.13525202560000
H        -2.22931680840000   -1.49208990430000    2.65082339550000
H        -1.31794848410000    1.85833237210000    0.81363367780000
H        -1.17314204840000    2.83903831510000   -1.48190285410000
H        -1.58895020600000    1.86940569940000   -2.89632508130000
H         0.68869219050000    2.66712576380000   -3.07450015790000
H         0.70276597400000    0.90923789820000   -2.92758815180000
H         1.00188665850000    2.57063060490000   -0.42505108600000
H         2.37889097520000    2.43842830130000   -1.51017840880000
H         2.44493094830000    0.03370260170000   -1.29535153340000
H         0.91474339280000    0.00116959610000   -0.42835681490000
H         1.92995624850000    1.29896060550000    1.43305848040000
H         3.47773136510000    1.28870225970000    0.58285292330000
H         3.53628600160000   -1.18584675490000    0.69865809570000
H         1.93240385710000   -1.19896874780000    1.43191532070000
H         3.53550535720000   -1.54331832000000    3.17883388860000
H         2.84136854920000    0.06243417920000    3.39452508630000
H         5.54055908910000   -0.50919561350000    2.07892989980000
H         5.31851869960000    0.03133699440000    3.74343691790000
H         4.87478927290000    1.09134145620000    2.40969732340000
H        -1.45187363200000   -0.29783741430000   -3.60903805720000
H        -1.99468658030000   -3.06386420330000   -2.41715971340000
H        -1.80948218590000   -2.63565333220000   -4.19089544050000
$end

$rem
BASIS = 6-31G*
GUI = 2
METHOD = B3LYP
PRINT_ORBITALS false
MOLDEN_FORMAT false
--------------------------------------------------------------

             Standard Nuclear Orientation (Angstroms)
    I     Atom           X                Y                Z
 ----------------------------------------------------------------
    1      C       0.4328089221     3.4651783412    -1.6017092271
    2      C      -0.3566502208     3.0972197974    -0.5952569625
    3      C      -1.0103177991     1.8220908265    -0.4764385846
    4      C      -1.0140599115     0.7484162393    -1.3296216681
    5      C      -1.7507052371    -0.3559022530    -0.8632614280
    6      C      -1.8276008361    -1.6514411243    -1.6084191884
    7      C      -0.8589379281    -2.7133386539    -1.0630572726
    8      C       0.6128951596    -2.2967077012    -1.1548959904
    9      C       1.1074307926    -1.5549665105     0.0867742424
   10      C       2.4831937409    -0.9300137382    -0.1290803653
   11      C       2.9439153000    -0.1488107318     1.0991754393
   12      C       4.2601940411     0.5988785234     0.8853995372
   13      C       5.4581249904    -0.3283798515     0.7157957972
   14      C      -2.3358414541    -0.1213463910     0.3647396775
   15      C      -3.1557441433    -1.0137932698     1.1349044188
   16      C      -3.6380620046    -0.7521173702     2.3473126128
   17      S      -1.9548423429     1.4763230879     0.9407719244
   18      H       0.8936818611     4.4366984857    -1.6243657636
   19      H       0.6443583492     2.8141282107    -2.4320671289
   20      H      -0.5396438105     3.7820606449     0.2227856544
   21      H      -0.4951801083     0.7475458876    -2.2713937455
   22      H      -1.5908698486    -1.4664815910    -2.6584174356
   23      H      -2.8450541090    -2.0473540888    -1.5614748426
   24      H      -1.0134284881    -3.6267084447    -1.6423818820
   25      H      -1.1066541265    -2.9336167237    -0.0228499115
   26      H       0.7522942241    -1.6629491177    -2.0333487402
   27      H       1.2321034410    -3.1856903248    -1.2970322487
   28      H       1.1504998356    -2.2507249484     0.9283661766
   29      H       0.4033701435    -0.7666317830     0.3508915945
   30      H       2.4360025922    -0.2505268722    -0.9839591827
   31      H       3.2024464627    -1.7161950178    -0.3651351247
   32      H       3.0503779341    -0.8323918653     1.9448431131
   33      H       2.1687115984     0.5775656649     1.3575097209
   34      H       4.4360230419     1.2461471342     1.7480646690
   35      H       4.1693463954     1.2404476654     0.0057556344
   36      H       5.5423978466    -0.9995024535     1.5679765096
   37      H       6.3765153038     0.2501813855     0.6435310444
   38      H       5.3642834900    -0.9271738491    -0.1862809679
   39      H      -3.3762957979    -1.9606709500     0.6597772341
   40      H      -3.4295457542     0.1799306871     2.8463529026
   41      H      -4.2521234604    -1.4590539366     2.8763357007
 ----------------------------------------------------------------

    9   -1022.3071099538      3.13e-06  Convergence criterion met
 Total energy in the final basis set =    -1022.3071099538

                    Orbital Energies (a.u.)
 --------------------------------------------------------------

 Alpha MOs
 -- Occupied --
-88.9015 -10.2180 -10.2122 -10.1992 -10.1959 -10.1935 -10.1882 -10.1851
-10.1834 -10.1794 -10.1789 -10.1715 -10.1683 -10.1653 -10.1648 -10.1632
-10.1627  -7.9633  -5.9273  -5.9237  -5.9201  -0.8907  -0.8153  -0.8044
 -0.7910  -0.7717  -0.7565  -0.7272  -0.7042  -0.6860  -0.6460  -0.6239
 -0.6053  -0.5789  -0.5701  -0.5569  -0.5354  -0.5238  -0.4871  -0.4759
 -0.4608  -0.4551  -0.4477  -0.4456  -0.4368  -0.4199  -0.4113  -0.4058
 -0.3929  -0.3922  -0.3830  -0.3754  -0.3682  -0.3629  -0.3562  -0.3517
 -0.3471  -0.3364  -0.3288  -0.3253  -0.3238  -0.3163  -0.3136  -0.3077
 -0.2897  -0.2685  -0.2446  -0.1959

          Ground-State Mulliken Net Atomic Charges

     Atom                 Charge (a.u.)
  ----------------------------------------
      1 C                    -0.341483
      2 C                    -0.088278
      3 C                    -0.123446
      4 C                    -0.163218
      5 C                     0.154811
      6 C                    -0.352751
      7 C                    -0.255332
      8 C                    -0.258885
      9 C                    -0.265695
     10 C                    -0.254654
     11 C                    -0.250472
     12 C                    -0.249161
     13 C                    -0.443293
     14 C                    -0.198454
     15 C                    -0.054481
     16 C                    -0.377341
     17 S                     0.226696
     18 H                     0.147613
     19 H                     0.142754
     20 H                     0.138000
     21 H                     0.133366
     22 H                     0.144019
     23 H                     0.145854
     24 H                     0.130415
     25 H                     0.141961
     26 H                     0.124264
     27 H                     0.130077
     28 H                     0.125600
     29 H                     0.160924
     30 H                     0.123765
     31 H                     0.128569
     32 H                     0.123821
     33 H                     0.134178
     34 H                     0.127265
     35 H                     0.128714
     36 H                     0.139959
     37 H                     0.139856
     38 H                     0.145893
     39 H                     0.138342
     40 H                     0.155388
     41 H                     0.144838
  ----------------------------------------
  Sum of atomic charges =     0.000000

                    Cartesian Multipole Moments
 -----------------------------------------------------------------
    Charge (ESU x 10^10)
                -0.0000
    Dipole Moment (Debye)
         X       0.1050      Y      -0.5523      Z      -0.7410
       Tot       0.9301
    Quadrupole Moments (Debye-Ang)
        XX    -116.3110     XY       4.9177     YY    -108.2010
        XZ      -2.1427     YZ       0.5063     ZZ    -109.9866

 Total job time:  90.64s(wall), 90.39s(cpu)
        *  Thank you very much for using Q-Chem.  Have a nice day.  *
