 Q-Chem 5.4, Q-Chem, Inc., Pleasanton, CA (2021)
 Q-Chem 5.4.2 for Intel X86 EM64T Linux

User input:
--------------------------------------------------------------
$molecule
0 1
C           -4.16626667430000       -0.98756832030000       -0.08718719380000
C           -2.95272051970000       -1.19726258790000        0.40401538750000
C           -1.81079578940000       -0.29782300450000        0.24608556750000
C           -1.98289771400000        1.07563341470000        0.09746664510000
C           -0.88102043740000        1.90445484170000       -0.00753172560000
Cl          -1.11566028630000        3.60723852780000       -0.18695725820000
C            0.40603683920000        1.40134234840000        0.04320800680000
C            0.60669750700000        0.02904643410000        0.18736564000000
C            1.92498179450000       -0.58024509860000        0.25913812660000
C            3.10493467300000       -0.01387944260000        0.06070547660000
F            3.36394599380000        1.24794460320000       -0.25851439600000
F            4.25381619860000       -0.67952390990000        0.14947933790000
C           -0.50982399290000       -0.81918731200000        0.28532072800000
O           -0.31037794960000       -2.17243538860000        0.43700690950000
C           -0.51539827550000       -2.94049081150000       -0.74437824100000
C           -0.37448103070000       -4.40890984040000       -0.38335146500000
H           -4.96571193350000       -1.69042770910000        0.07183748920000
H           -4.40615530770000       -0.11923244220000       -0.67746104230000
H           -2.74076752290000       -2.09900448350000        0.96397330560000
H           -2.97565630010000        1.49549253670000        0.08994993810000
H            1.24251159790000        2.07603182760000       -0.02376493210000
H            1.93903644970000       -1.63197601420000        0.50623543740000
H            0.23280198880000       -2.65513821270000       -1.49887342490000
H           -1.51283550960000       -2.73752905330000       -1.15742732890000
H            0.61178384860000       -4.59825970820000        0.03133743040000
H           -0.51194522100000       -5.02033256970000       -1.27037228710000
H           -1.11906110420000       -4.68347191610000        0.35873757030000
$end

$rem
BASIS = 6-31G*
GUI = 2
METHOD = B3LYP
PRINT_ORBITALS false
MOLDEN_FORMAT false
$end
--------------------------------------------------------------

             Standard Nuclear Orientation (Angstroms)
    I     Atom           X                Y                Z
 ----------------------------------------------------------------
    1      C      -4.1804305721    -0.0477338087     0.0648196080
    2      C      -3.0419149589     0.4218746723    -0.4262974903
    3      C      -1.7295649341    -0.2007765174    -0.2590599642
    4      C      -1.5934484431    -1.5769966000    -0.0991231732
    5      C      -0.3356252899    -2.1400839140     0.0145286658
    6      Cl     -0.1875967404    -3.8510473574     0.2079538599
    7      C       0.8080615408    -1.3645963415    -0.0385052196
    8      C       0.7000355440     0.0168581024    -0.1939278902
    9      C       1.8507076721     0.9026359811    -0.2688420251
   10      C       3.1261766952     0.6135108164    -0.0638547606
   11      F       3.6573655684    -0.5569448954     0.2663874557
   12      F       4.0992268578     1.5165513082    -0.1565012197
   13      C      -0.5763938724     0.5956834520    -0.3007225838
   14      O      -0.6813570423     1.9582359221    -0.4635147149
   15      C      -1.0554712356     2.6710298588     0.7110391216
   16      C      -1.2423349826     4.1312583985     0.3378541819
   17      H      -5.1152455667     0.4591447955    -0.1013366410
   18      H      -4.2238539912    -0.9429590779     0.6620323791
   19      H      -3.0332381350     1.3437202914    -0.9935194542
   20      H      -2.4684678633    -2.2064070379    -0.0895676311
   21      H       1.7730486154    -1.8365244447     0.0354211032
   22      H       1.6321176923     1.9293331501    -0.5247792773
   23      H      -0.2651604649     2.5645951966     1.4690452377
   24      H      -1.9844857297     2.2552756024     1.1242757708
   25      H      -0.3211922396     4.5312502858    -0.0769243152
   26      H      -1.5148708504     4.7039749057     1.2194777407
   27      H      -2.0267653579     4.2280717195    -0.4076497569
 ----------------------------------------------------------------

    9   -1198.9477577693      4.90e-06  Convergence criterion met
 Total energy in the final basis set =    -1198.9477577693

                    Orbital Energies (a.u.)
 --------------------------------------------------------------

 Alpha MOs
 -- Occupied --
******** -24.7480 -24.7375 -19.1758 -10.3610 -10.2517 -10.2497 -10.2458
-10.2170 -10.2088 -10.2043 -10.2015 -10.2013 -10.1990 -10.1898 -10.1858
 -9.4649  -7.2286  -7.2192  -7.2189  -1.2894  -1.2282  -1.0670  -0.9002
 -0.8523  -0.8240  -0.7823  -0.7763  -0.7386  -0.7200  -0.6615  -0.6423
 -0.6276  -0.5989  -0.5753  -0.5733  -0.5387  -0.5284  -0.5227  -0.5020
 -0.4800  -0.4719  -0.4650  -0.4494  -0.4452  -0.4444  -0.4355  -0.4276
 -0.4210  -0.4035  -0.3981  -0.3904  -0.3892  -0.3732  -0.3633  -0.3490
 -0.3388  -0.3218  -0.3122  -0.2854  -0.2753  -0.2332  -0.2253

          Ground-State Mulliken Net Atomic Charges

     Atom                 Charge (a.u.)
  ----------------------------------------
      1 C                    -0.344996
      2 C                    -0.126731
      3 C                     0.151502
      4 C                    -0.208586
      5 C                    -0.058674
      6 Cl                   -0.016391
      7 C                    -0.221438
      8 C                     0.167082
      9 C                    -0.298557
     10 C                     0.550410
     11 F                    -0.233269
     12 F                    -0.245673
     13 C                     0.205242
     14 O                    -0.534121
     15 C                    -0.038986
     16 C                    -0.457760
     17 H                     0.149181
     18 H                     0.148726
     19 H                     0.153773
     20 H                     0.152023
     21 H                     0.161377
     22 H                     0.180850
     23 H                     0.138395
     24 H                     0.148813
     25 H                     0.162279
     26 H                     0.153600
     27 H                     0.161929
  ----------------------------------------
  Sum of atomic charges =     0.000000

                    Cartesian Multipole Moments
 -----------------------------------------------------------------
    Charge (ESU x 10^10)
                 0.0000
    Dipole Moment (Debye)
         X      -1.6258      Y       2.3016      Z       0.8240
       Tot       2.9359
    Quadrupole Moments (Debye-Ang)
        XX     -94.2459     XY      -2.1113     YY     -97.7656
        XZ      -1.2356     YZ       2.0925     ZZ     -99.2837

 Total job time:  71.25s(wall), 66.93s(cpu)
        *  Thank you very much for using Q-Chem.  Have a nice day.  *
