 Q-Chem 5.2, Q-Chem, Inc., Pleasanton, CA (2019)
 Q-Chem 5.2.1 for Intel X86 EM64T Linux

User input:
--------------------------------------------------------------
$molecule
0 1
C         3.34103539060000    2.55337095270000    0.49699952500000
N         3.00385827060000    1.21964576560000    0.06016165630000
C         1.66119548960000    0.85571735210000    0.02599642280000
C         0.63845486370000    1.78366720760000    0.01708539360000
C        -0.69262727480000    1.38929645800000   -0.08430930790000
C        -1.05457347630000    0.06193425930000   -0.18197484460000
C        -2.43875156610000   -0.31938201430000   -0.41940728570000
C        -3.51986648440000    0.35641895490000   -0.06112657370000
F        -3.58154401530000    1.48991840450000    0.63357831640000
F        -4.76278284920000   -0.04024556860000   -0.34888611970000
C         1.31887112860000   -0.53282681860000    0.07025127170000
C        -0.03768240010000   -0.93324059950000   -0.06715586590000
C        -0.33317437950000   -2.31177599190000   -0.01874500350000
C         0.64482215850000   -3.24748456200000    0.17813510540000
C         1.96960788650000   -2.84606708690000    0.37842406290000
C         2.29387531810000   -1.51840108280000    0.32784752240000
C         3.85468027480000    0.76781662690000   -1.02286876330000
H         2.76607587950000    2.80312393320000    1.38638114790000
H         3.16828422080000    3.31795258840000   -0.27315250080000
H         4.40119782880000    2.56674398780000    0.75427370280000
H         0.85651501470000    2.83948188470000    0.03461760450000
H        -1.44694016490000    2.15776471690000   -0.14721656310000
H        -2.63069084910000   -1.23527626480000   -0.95725338900000
H        -1.35691771630000   -2.63900635880000   -0.11117402960000
H         0.39214677690000   -4.29712969740000    0.21258486930000
H         2.72844265660000   -3.58514976450000    0.58894515720000
H         3.30542780680000   -1.20630874220000    0.53299682950000
H         3.93023073500000    1.53626874230000   -1.80421449220000
H         3.45378452270000   -0.13557383580000   -1.47370751140000
H         4.85967830960000    0.56601634570000   -0.64526663570000
$end

$rem
BASIS = 6-31G*
GUI = 2
METHOD = B3LYP
PRINT_ORBITALS false
MOLDEN_FORMAT false
--------------------------------------------------------------

             Standard Nuclear Orientation (Angstroms)
    I     Atom           X                Y                Z
 ----------------------------------------------------------------
    1      C       3.2894382371    -2.4404485146    -0.5142307709
    2      N       2.9090962867    -1.1193836062    -0.0743829369
    3      C       1.5552395354    -0.7998337063    -0.0381302808
    4      C       0.5635477119    -1.7609011489    -0.0300415976
    5      C      -0.7796623630    -1.4106771855     0.0734895735
    6      C      -1.1849163866    -0.0961183315     0.1741782624
    7      C      -2.5806182655     0.2390460829     0.4137744418
    8      C      -3.6393324501    -0.4712046055     0.0552361311
    9      F      -3.6644855720    -1.6047495781    -0.6416735617
   10      F      -4.8942989658    -0.1161580203     0.3450470298
   11      C       1.1674337946     0.5767978743    -0.0792590105
   12      C      -0.2013936412     0.9321538633     0.0603223844
   13      C      -0.5420679620     2.3003289754     0.0149702138
   14      C       0.4044465338     3.2680506434    -0.1810262561
   15      C       1.7414885625     2.9107714655    -0.3834591671
   16      C       2.1092538752     1.5943793556    -0.3358686222
   17      C       3.7457811382    -0.6419757066     1.0086880209
   18      H       2.7220365060    -2.7072070820    -1.4035281363
   19      H       3.1427294547    -3.2118069413     0.2545636736
   20      H       4.3491899221    -2.4184757736    -0.7726041457
   21      H       0.8161584602    -2.8089447443    -0.0499079544
   22      H      -1.5082528819    -2.2036362984     0.1356218916
   23      H      -2.8019647839     1.1470796124     0.9536468576
   24      H      -1.5759091784     2.5935644016     0.1090902520
   25      H       0.1173859476     4.3088930027    -0.2131190565
   26      H       2.4754049012     3.6747999056    -0.5932683524
   27      H       3.1302920478     1.3160949819    -0.5426660160
   28      H       3.8473790214    -1.4090664176     1.7884170668
   29      H       3.3159081251     0.2468665808     1.4617397725
   30      H       4.7431993687    -0.4065219665     0.6304735578
 ----------------------------------------------------------------

    9    -795.7173575999      6.75e-06  Convergence criterion met
 Total energy in the final basis set =     -795.7173575999

                    Orbital Energies (a.u.)
 --------------------------------------------------------------

 Alpha MOs
 -- Occupied --
-24.7336 -24.7252 -14.3441 -10.3462 -10.2203 -10.2113 -10.2111 -10.1945
-10.1936 -10.1932 -10.1902 -10.1847 -10.1835 -10.1832 -10.1826 -10.1823
-10.1784  -1.2741  -1.2140  -0.9497  -0.8718  -0.8271  -0.7970  -0.7571
 -0.7435  -0.7223  -0.7134  -0.6642  -0.6241  -0.6166  -0.6135  -0.5774
 -0.5634  -0.5233  -0.5190  -0.5085  -0.5062  -0.4914  -0.4694  -0.4625
 -0.4573  -0.4400  -0.4324  -0.4273  -0.4218  -0.4137  -0.4099  -0.4027
 -0.4003  -0.3864  -0.3848  -0.3778  -0.3756  -0.3360  -0.3335  -0.3282
 -0.3037  -0.2517  -0.2429  -0.2366  -0.1820

          Ground-State Mulliken Net Atomic Charges

     Atom                 Charge (a.u.)
  ----------------------------------------
      1 C                    -0.308694
      2 N                    -0.461406
      3 C                     0.271612
      4 C                    -0.197509
      5 C                    -0.214530
      6 C                     0.136044
      7 C                    -0.314359
      8 C                     0.543916
      9 F                    -0.240319
     10 F                    -0.254201
     11 C                     0.086419
     12 C                     0.055960
     13 C                    -0.192850
     14 C                    -0.132304
     15 C                    -0.131457
     16 C                    -0.197441
     17 C                    -0.323366
     18 H                     0.167015
     19 H                     0.134931
     20 H                     0.154847
     21 H                     0.126633
     22 H                     0.132830
     23 H                     0.164079
     24 H                     0.126287
     25 H                     0.126695
     26 H                     0.125740
     27 H                     0.147173
     28 H                     0.139363
     29 H                     0.176408
     30 H                     0.152486
  ----------------------------------------
  Sum of atomic charges =     0.000000

                    Cartesian Multipole Moments
 -----------------------------------------------------------------
    Charge (ESU x 10^10)
                 0.0000
    Dipole Moment (Debye)
         X       2.5003      Y      -0.1518      Z       0.6150
       Tot       2.5793
    Quadrupole Moments (Debye-Ang)
        XX     -93.6212     XY      -4.4601     YY     -88.4085
        XZ      -0.2508     YZ       0.1456     ZZ     -99.5512

 Total job time:  59.64s(wall), 59.41s(cpu)
        *  Thank you very much for using Q-Chem.  Have a nice day.  *
