 Q-Chem 5.2, Q-Chem, Inc., Pleasanton, CA (2019)
 Q-Chem 5.2.1 for Intel X86 EM64T Linux

User input:
--------------------------------------------------------------
$molecule
0 1
C         0.53920412580000    3.18828037410000   -0.28274835340000
C         0.91129164300000    2.04466386690000    0.27547679840000
C         0.18557247920000    0.78423913250000    0.12468993740000
C        -1.20746543330000    0.77645927130000    0.11069180760000
C        -1.90940591220000   -0.41495794430000    0.01345790340000
C        -3.40397284510000   -0.45368166620000   -0.02649748490000
C        -1.14995273280000   -1.58226285810000   -0.04731896690000
N         0.16351386990000   -1.60073453680000   -0.05304637620000
C         0.84363561280000   -0.45792663770000    0.01582156320000
C         2.29749362050000   -0.55919443710000   -0.06110725680000
C         2.94560126140000   -1.71760161520000   -0.02753273170000
H         1.09712075710000    4.09754427880000   -0.13753509920000
H        -0.32443522200000    3.25614762410000   -0.92356290600000
H         1.80077908380000    2.01203230040000    0.89091570260000
H        -1.74250497380000    1.71182706780000    0.20391225170000
H        -3.82724932770000    0.44583754610000    0.41479341650000
H        -3.78100260510000   -1.32384894360000    0.50670590710000
H        -3.74634828550000   -0.51969910390000   -1.05992063810000
H        -1.63034101470000   -2.55219511680000   -0.09536680410000
H         2.83932608890000    0.37011099590000   -0.16611787140000
H         2.40404382880000   -2.64247855410000    0.06849020390000
H         4.01857518730000   -1.77252146030000   -0.09643876280000
$end

$rem
BASIS = 6-31G*
GUI = 2
METHOD = B3LYP
PRINT_ORBITALS false
MOLDEN_FORMAT false
--------------------------------------------------------------

             Standard Nuclear Orientation (Angstroms)
    I     Atom           X                Y                Z
 ----------------------------------------------------------------
    1      C      -0.5779061252    -3.1657890156    -0.2721188254
    2      C      -0.9437088315    -2.0180767525     0.2818379394
    3      C      -0.2093221324    -0.7629308171     0.1289970079
    4      C       1.1837653726    -0.7643977232     0.1182196630
    5      C       1.8937938661     0.4220595700     0.0190809749
    6      C       3.3886725132     0.4507873157    -0.0175089671
    7      C       1.1422208989     1.5941705068    -0.0469322682
    8      N      -0.1710780619     1.6213035685    -0.0557730336
    9      C      -0.8589013302     0.4832254252     0.0149062680
   10      C      -2.3118761919     0.5938674442    -0.0657083216
   11      C      -2.9523830548     1.7566269311    -0.0370851272
   12      H      -1.1421587554    -4.0709087860    -0.1255041068
   13      H       0.2867426807    -3.2412749839    -0.9107161074
   14      H      -1.8343795762    -1.9777305317     0.8951042586
   15      H       1.7123894696    -1.7029978904     0.2154645397
   16      H       3.8049697638    -0.4501871736     0.4274371223
   17      H       3.7702177162     1.3200328774     0.5139830829
   18      H       3.7338622859     0.5114543051    -1.0503236625
   19      H       1.6291240349     2.5607595116    -0.0967430541
   20      H      -2.8595998820    -0.3321469209    -0.1692186873
   21      H      -2.4049429349     2.6781878934     0.0574501412
   22      H      -4.0248082790     1.8184294129    -0.1086523543
 ----------------------------------------------------------------

    9    -442.3993539606      2.84e-06  Convergence criterion met
 Total energy in the final basis set =     -442.3993539606

                    Orbital Energies (a.u.)
 --------------------------------------------------------------

 Alpha MOs
 -- Occupied --
-14.3181 -10.2194 -10.2121 -10.1989 -10.1979 -10.1963 -10.1950 -10.1871
-10.1855 -10.1809 -10.1737  -0.9446  -0.8254  -0.8110  -0.7687  -0.7364
 -0.6932  -0.6451  -0.6180  -0.5668  -0.5597  -0.5167  -0.4867  -0.4684
 -0.4451  -0.4345  -0.4287  -0.4148  -0.3995  -0.3920  -0.3885  -0.3830
 -0.3644  -0.3408  -0.3046  -0.2941  -0.2561  -0.2453  -0.2172

          Ground-State Mulliken Net Atomic Charges

     Atom                 Charge (a.u.)
  ----------------------------------------
      1 C                    -0.335713
      2 C                    -0.137709
      3 C                     0.107444
      4 C                    -0.199702
      5 C                     0.153847
      6 C                    -0.533061
      7 C                    -0.005159
      8 N                    -0.490422
      9 C                     0.241186
     10 C                    -0.101385
     11 C                    -0.327896
     12 H                     0.146040
     13 H                     0.145463
     14 H                     0.145003
     15 H                     0.131900
     16 H                     0.159868
     17 H                     0.164017
     18 H                     0.170844
     19 H                     0.130114
     20 H                     0.127232
     21 H                     0.169816
     22 H                     0.138274
  ----------------------------------------
  Sum of atomic charges =     0.000000

                    Cartesian Multipole Moments
 -----------------------------------------------------------------
    Charge (ESU x 10^10)
                 0.0000
    Dipole Moment (Debye)
         X       1.1794      Y      -1.5191      Z       0.0954
       Tot       1.9256
    Quadrupole Moments (Debye-Ang)
        XX     -56.9653     XY       2.0429     YY     -62.8318
        XZ      -1.1556     YZ       0.3901     ZZ     -67.4192

 Total job time:  24.70s(wall), 24.60s(cpu)
        *  Thank you very much for using Q-Chem.  Have a nice day.  *
