 Q-Chem 5.2, Q-Chem, Inc., Pleasanton, CA (2019)
 Q-Chem 5.2.1 for Intel X86 EM64T Linux

User input:
--------------------------------------------------------------
$molecule
0 1
C         3.91461126680000   -0.91856685750000   -0.43692008350000
C         3.08932678180000   -0.09639320730000    0.19597479580000
C         1.62871826590000   -0.15212301970000    0.11145343350000
C         1.00506462600000   -1.38665155460000    0.03363282130000
C        -0.38037206880000   -1.43783763130000   -0.00009521530000
N        -1.23138530150000   -2.51719759890000   -0.03185511530000
C        -2.42244731000000   -2.01600187870000   -0.00014316590000
N        -2.44080174910000   -0.64970252510000    0.04393023260000
C        -1.13211975600000   -0.24335569250000    0.04257032630000
C        -0.53925979420000    1.01737458840000    0.11786263200000
C        -1.34169767530000    2.23433344050000    0.19959828410000
C        -2.47555350730000    2.45116577310000   -0.45591469950000
C         0.86522218930000    1.04684865610000    0.14162329320000
N         1.51308109650000    2.26017887020000    0.06244136740000
H         4.98244516450000   -0.85561408450000   -0.31388058100000
H         3.55340902050000   -1.67629090640000   -1.11087251120000
H         3.50914885320000    0.66262838930000    0.84838957600000
H         1.58322332910000   -2.29562109470000    0.03219338240000
H        -3.32445845290000   -2.59722096890000   -0.01174170010000
H        -3.24710496960000   -0.05345786110000    0.11911870080000
H        -0.97490663520000    3.00524083970000    0.87048353450000
H        -2.86433805080000    1.74874742610000   -1.17441934230000
H        -3.03645499930000    3.36165503170000   -0.33000692630000
H         0.98467443220000    3.07769464760000    0.31621763010000
H         2.48522720280000    2.27882601110000    0.31907307640000
$end

$rem
BASIS = 6-31G*
GUI = 2
METHOD = B3LYP
PRINT_ORBITALS false
MOLDEN_FORMAT false
--------------------------------------------------------------

             Standard Nuclear Orientation (Angstroms)
    I     Atom           X                Y                Z
 ----------------------------------------------------------------
    1      C       3.9295066566    -0.8030697308    -0.4359747961
    2      C       3.0744004713    -0.0034751651     0.1861681642
    3      C       1.6168821884    -0.1191405948     0.1094291723
    4      C       1.0429560507    -1.3788401098     0.0562640131
    5      C      -0.3394338368    -1.4860527246     0.0298805996
    6      N      -1.1465785068    -2.5990174106     0.0210918316
    7      C      -2.3566545898    -2.1454316085     0.0495048443
    8      N      -2.4296339506    -0.7803953992     0.0695905031
    9      C      -1.1383228884    -0.3220605851     0.0549927102
   10      C      -0.5962265171     0.9625375019     0.1053115535
   11      C      -1.4465124829     2.1476501238     0.1693269205
   12      C      -2.5907262018     2.3072133706    -0.4846280594
   13      C       0.8060249845     1.0486442931     0.1220231822
   14      N       1.4043690713     2.2853426455     0.0184727679
   15      H       4.9944314376    -0.6952307225    -0.3190262478
   16      H       3.5963432700    -1.5865162653    -1.0947906712
   17      H       3.4659991926     0.7832318665     0.8231547332
   18      H       1.6571052927    -2.2638116592     0.0681487918
   19      H      -3.2346608181    -2.7624172657     0.0523369100
   20      H      -3.2589060091    -0.2156721078     0.1380108626
   21      H      -1.1083058109     2.9444365831     0.8248179501
   22      H      -2.9538436177     1.5771225732    -1.1888347385
   23      H      -3.1872032264     3.1966079736    -0.3721721108
   24      H       0.8445937693     3.0854284667     0.2602626163
   25      H       2.3759872149     2.3474630832     0.2702163599
 ----------------------------------------------------------------

    9    -590.0072257460      2.84e-06  Convergence criterion met
 Total energy in the final basis set =     -590.0072257460

                    Orbital Energies (a.u.)
 --------------------------------------------------------------

 Alpha MOs
 -- Occupied --
-14.3828 -14.3431 -14.3031 -10.2386 -10.2278 -10.2159 -10.2015 -10.1898
-10.1878 -10.1873 -10.1861 -10.1825 -10.1783 -10.1730  -1.0150  -0.9284
 -0.8757  -0.8351  -0.8035  -0.7679  -0.7181  -0.7151  -0.6479  -0.6140
 -0.6071  -0.5913  -0.5624  -0.5378  -0.5217  -0.5031  -0.4801  -0.4663
 -0.4472  -0.4396  -0.4358  -0.4226  -0.4088  -0.4041  -0.3840  -0.3723
 -0.3526  -0.3411  -0.3128  -0.2958  -0.2802  -0.2658  -0.2586  -0.2067
 -0.1837

          Ground-State Mulliken Net Atomic Charges

     Atom                 Charge (a.u.)
  ----------------------------------------
      1 C                    -0.337545
      2 C                    -0.147315
      3 C                     0.146199
      4 C                    -0.256639
      5 C                     0.244601
      6 N                    -0.496524
      7 C                     0.218291
      8 N                    -0.690840
      9 C                     0.248370
     10 C                     0.141990
     11 C                    -0.135590
     12 C                    -0.364706
     13 C                     0.140414
     14 N                    -0.798939
     15 H                     0.137125
     16 H                     0.147534
     17 H                     0.117931
     18 H                     0.140264
     19 H                     0.152907
     20 H                     0.328636
     21 H                     0.126868
     22 H                     0.143429
     23 H                     0.143528
     24 H                     0.323396
     25 H                     0.326614
  ----------------------------------------
  Sum of atomic charges =     0.000000

                    Cartesian Multipole Moments
 -----------------------------------------------------------------
    Charge (ESU x 10^10)
                 0.0000
    Dipole Moment (Debye)
         X      -1.4500      Y       3.5481      Z       1.0359
       Tot       3.9705
    Quadrupole Moments (Debye-Ang)
        XX     -63.3326     XY       1.9196     YY     -80.8169
        XZ       1.7958     YZ       4.4896     ZZ     -84.4270

 Total job time:  40.11s(wall), 39.98s(cpu)
        *  Thank you very much for using Q-Chem.  Have a nice day.  *
