 Q-Chem 5.2, Q-Chem, Inc., Pleasanton, CA (2019)
 Q-Chem 5.2.1 for Intel X86 EM64T Linux

User input:
--------------------------------------------------------------
$molecule
0 1
C        -3.53798114940000    0.14879819640000    0.17952220540000
C        -2.39414455980000   -0.21471680350000   -0.38338213480000
C        -1.10758858600000    0.44720239240000   -0.15532523570000
C        -1.07450095340000    1.82501260400000    0.02519278320000
C         0.13049340650000    2.47830897100000    0.19990342550000
C         1.30325095740000    1.75720972730000    0.19002897360000
C         1.30071417090000    0.37181693350000    0.00465544820000
O         2.55950791850000   -0.15665745420000    0.07235612740000
C         2.83348952690000   -1.51185313990000   -0.17709695040000
C         0.08610263280000   -0.30157051990000   -0.17210112390000
C        -0.02827855880000   -1.76461619350000   -0.33719395760000
C        -0.69203579040000   -2.53949352160000    0.50649543570000
H        -4.46129930780000   -0.36028904100000   -0.03840633540000
H        -3.59518560110000    0.95437930630000    0.89247274730000
H        -2.37887455330000   -1.05752949290000   -1.06220569940000
H        -1.99736517070000    2.38329334020000    0.00525932010000
H         0.15647715890000    3.54861950810000    0.33872096020000
H         2.25932829000000    2.23684478380000    0.32856974870000
H         3.88718712780000   -1.63880806900000    0.07359343030000
H         2.69084252340000   -1.76442457900000   -1.23198484200000
H         2.23166746010000   -2.17612334110000    0.44762808030000
H         0.42201314500000   -2.19398640460000   -1.22354890670000
H        -1.15535426580000   -2.13957405610000    1.39324688190000
H        -0.78774207950000   -3.60093015070000    0.34976827390000
$end

$rem
BASIS = 6-31G*
GUI = 2
METHOD = B3LYP
PRINT_ORBITALS false
MOLDEN_FORMAT false
--------------------------------------------------------------

             Standard Nuclear Orientation (Angstroms)
    I     Atom           X                Y                Z
 ----------------------------------------------------------------
    1      C      -3.4910363473    -0.5152387030     0.1407379627
    2      C      -2.2894557980    -0.6613419287    -0.3998400853
    3      C      -1.1631613972     0.2494086761    -0.1821993183
    4      C      -1.4064605603     1.6111916833    -0.0465708395
    5      C      -0.3575844006     2.4956866861     0.1173155559
    6      C       0.9348098584     2.0217893369     0.1414045367
    7      C       1.2096265613     0.6584958672     0.0014414434
    8      O       2.5470001443     0.3927305280     0.0975192434
    9      C       3.0878087704    -0.8880300685    -0.1050305792
   10      C       0.1553367483    -0.2476521264    -0.1639173802
   11      C       0.3356178597    -1.7086047391    -0.2820593627
   12      C      -0.1741574085    -2.5738880853     0.5806307528
   13      H      -4.2917714544    -1.2038550835    -0.0685700750
   14      H      -3.7175168338     0.2841878064     0.8264168923
   15      H      -2.0972137703    -1.5045317175    -1.0505641568
   16      H      -2.4212333002     1.9742916633    -0.0929149645
   17      H      -0.5462876331     3.5535598600     0.2212652894
   18      H       1.7746893213     2.6856502099     0.2726235479
   19      H       4.1418486019    -0.7956232627     0.1589824340
   20      H       3.0140345620    -1.1957515950    -1.1523098120
   21      H       2.6201364990    -1.6393019787     0.5357495920
   22      H       0.8754338973    -2.0667065626    -1.1498774439
   23      H      -0.7209112385    -2.2472110642     1.4496935176
   24      H      -0.0552731235    -3.6374520910     0.4578751132
 ----------------------------------------------------------------

    9    -501.5484991609      2.90e-06  Convergence criterion met
 Total energy in the final basis set =     -501.5484991609

                    Orbital Energies (a.u.)
 --------------------------------------------------------------

 Alpha MOs
 -- Occupied --
-19.1718 -10.2445 -10.2338 -10.1934 -10.1926 -10.1913 -10.1821 -10.1819
-10.1813 -10.1754 -10.1735 -10.1716  -1.0607  -0.8618  -0.7975  -0.7815
 -0.7450  -0.7188  -0.6858  -0.6251  -0.6062  -0.5710  -0.5492  -0.5101
 -0.4926  -0.4860  -0.4686  -0.4556  -0.4505  -0.4258  -0.4249  -0.4095
 -0.3838  -0.3741  -0.3662  -0.3560  -0.3386  -0.3244  -0.3206  -0.2799
 -0.2703  -0.2221  -0.2090

          Ground-State Mulliken Net Atomic Charges

     Atom                 Charge (a.u.)
  ----------------------------------------
      1 C                    -0.344694
      2 C                    -0.119703
      3 C                     0.101734
      4 C                    -0.193978
      5 C                    -0.123846
      6 C                    -0.176438
      7 C                     0.312735
      8 O                    -0.512299
      9 C                    -0.216821
     10 C                     0.037735
     11 C                    -0.180005
     12 C                    -0.307238
     13 H                     0.138104
     14 H                     0.140650
     15 H                     0.138522
     16 H                     0.126472
     17 H                     0.128389
     18 H                     0.135020
     19 H                     0.162105
     20 H                     0.143663
     21 H                     0.167855
     22 H                     0.143500
     23 H                     0.157539
     24 H                     0.140998
  ----------------------------------------
  Sum of atomic charges =     0.000000

                    Cartesian Multipole Moments
 -----------------------------------------------------------------
    Charge (ESU x 10^10)
                 0.0000
    Dipole Moment (Debye)
         X       0.4775      Y      -1.3289      Z      -0.2437
       Tot       1.4330
    Quadrupole Moments (Debye-Ang)
        XX     -66.8340     XY      -3.5991     YY     -64.6165
        XZ      -1.8001     YZ       1.5804     ZZ     -72.2439

 Total job time:  34.61s(wall), 34.48s(cpu)
        *  Thank you very much for using Q-Chem.  Have a nice day.  *
