 Q-Chem 5.2, Q-Chem, Inc., Pleasanton, CA (2019)
 Q-Chem 5.2.1 for Intel X86 EM64T Linux

User input:
--------------------------------------------------------------
$molecule
0 1
C        -2.42058843280000    1.92051840210000    0.01953773940000
C        -2.38544905860000    0.59466794490000   -0.01040269880000
C        -1.14790201450000   -0.18018530610000   -0.00694384860000
C        -1.19144794560000   -1.57867198360000   -0.00995832690000
C         0.00001990480000   -2.28135490790000   -0.00045937940000
C         1.19147342110000   -1.57865745590000    0.00958430260000
C         1.14789936220000   -0.18017014130000    0.00741737670000
C         2.38543109270000    0.59471321520000    0.01150274080000
C         2.42057020560000    1.92051073720000   -0.02056962850000
N        -0.00000611510000    0.48714221960000    0.00039761500000
H        -3.34675551720000    2.46920772320000    0.01775220770000
H        -1.50621239030000    2.48709426030000    0.04755879510000
H        -3.29839681230000    0.01374715780000   -0.03673963620000
H        -2.14023946620000   -2.09387228350000   -0.01805557750000
H         0.00003048510000   -3.36255535820000   -0.00084640660000
H         2.14027550800000   -2.09384332360000    0.01740505490000
H         3.29835122360000    0.01384263390000    0.04007215050000
H         1.50622563240000    2.48702894990000   -0.05089329410000
H         3.34672844330000    2.46922417820000   -0.01830249620000
$end

$rem
BASIS = 6-31G*
GUI = 2
METHOD = B3LYP
PRINT_ORBITALS false
MOLDEN_FORMAT false
--------------------------------------------------------------

             Standard Nuclear Orientation (Angstroms)
    I     Atom           X                Y                Z
 ----------------------------------------------------------------
    1      C       2.4205843526    -1.9035472936     0.0199006780
    2      C       2.3854499722    -0.5776973173    -0.0100669018
    3      C       1.1479031208     0.1971570019    -0.0067828108
    4      C       1.1914505890     1.5956435924    -0.0098153931
    5      C      -0.0000179167     2.2983276501    -0.0004839610
    6      C      -1.1914733090     1.5956313409     0.0094161143
    7      C      -1.1479001114     0.1971439541     0.0072786671
    8      C      -2.3854329985    -0.5777383234     0.0112156364
    9      C      -2.4205690080    -1.9035363621    -0.0208387675
   10      N       0.0000057269    -0.4701694625     0.0004201314
   11      H       3.3467512134    -2.4522374005     0.0182454035
   12      H       1.5062041959    -2.4701219292     0.0478119875
   13      H       3.2984016319     0.0032222770    -0.0362945234
   14      H       2.1402435801     2.1108429806    -0.0177975303
   15      H      -0.0000275622     3.3795280936    -0.0008893818
   16      H      -2.1402759875     2.1108181155     0.0171042239
   17      H      -3.2983563766     0.0031334885     0.0396559708
   18      H      -1.5062209468    -2.4700558364    -0.0510334159
   19      H      -3.3467279826    -2.4522490090    -0.0186832234
 ----------------------------------------------------------------

    9    -403.0882706141      2.65e-06  Convergence criterion met
 Total energy in the final basis set =     -403.0882706141

                    Orbital Energies (a.u.)
 --------------------------------------------------------------

 Alpha MOs
 -- Occupied --
-14.3181 -10.2241 -10.2241 -10.2037 -10.1925 -10.1925 -10.1845 -10.1845
-10.1772 -10.1772  -0.9480  -0.8114  -0.8043  -0.7642  -0.7270  -0.6480
 -0.6318  -0.5691  -0.5659  -0.5064  -0.4861  -0.4770  -0.4447  -0.4378
 -0.4122  -0.4092  -0.3947  -0.3819  -0.3648  -0.3441  -0.3191  -0.2970
 -0.2515  -0.2510  -0.2225

          Ground-State Mulliken Net Atomic Charges

     Atom                 Charge (a.u.)
  ----------------------------------------
      1 C                    -0.330849
      2 C                    -0.109915
      3 C                     0.324693
      4 C                    -0.187790
      5 C                    -0.094736
      6 C                    -0.187788
      7 C                     0.324679
      8 C                    -0.109913
      9 C                    -0.330844
     10 N                    -0.573069
     11 H                     0.141242
     12 H                     0.168356
     13 H                     0.124373
     14 H                     0.134122
     15 H                     0.139345
     16 H                     0.134122
     17 H                     0.124378
     18 H                     0.168353
     19 H                     0.141241
  ----------------------------------------
  Sum of atomic charges =     0.000000

                    Cartesian Multipole Moments
 -----------------------------------------------------------------
    Charge (ESU x 10^10)
                 0.0000
    Dipole Moment (Debye)
         X      -0.0001      Y       1.4675      Z      -0.0008
       Tot       1.4675
    Quadrupole Moments (Debye-Ang)
        XX     -50.7437     XY       0.0001     YY     -51.6450
        XZ      -0.1054     YZ       0.0034     ZZ     -62.3078

 Total job time:  18.56s(wall), 18.49s(cpu)
        *  Thank you very much for using Q-Chem.  Have a nice day.  *
