 Q-Chem 5.2, Q-Chem, Inc., Pleasanton, CA (2019)
 Q-Chem 5.2.1 for Intel X86 EM64T Linux

User input:
--------------------------------------------------------------
$molecule
0 1
C         4.09921666030000   -0.74537329980000   -0.69520428480000
C         3.33960967420000    0.22899031180000   -0.20941596560000
C         1.89104050920000    0.19888106410000   -0.05629367930000
C         1.11167576910000   -0.93599226120000   -0.26810084470000
C        -0.26940083820000   -0.95467965850000   -0.10082789370000
C        -0.94996378860000   -2.24391389620000   -0.26190917470000
C        -1.91682875290000   -2.70074972980000    0.52069366890000
C        -0.91106747360000    0.24337473090000    0.23461094140000
S        -2.68169876320000    0.41259312430000    0.36165213720000
C        -3.16320653990000   -0.05420736480000   -1.32937420480000
C        -0.16467939160000    1.39011777140000    0.46095024620000
C         1.20701235840000    1.35385733320000    0.33276867880000
F         1.89791100010000    2.49066434350000    0.56447176650000
H         5.16639100250000   -0.63102068360000   -0.77222744890000
H         3.70003897150000   -1.68459764370000   -1.03800235650000
H         3.80458754970000    1.15453121840000    0.10386329250000
H         1.59954733120000   -1.85895471980000   -0.54183687180000
H        -0.55006820040000   -2.87234187030000   -1.04943377440000
H        -2.31386461970000   -2.12102775180000    1.33621022490000
H        -2.34392124780000   -3.67815042460000    0.37255501290000
H        -4.23731282250000    0.08665973610000   -1.38708581250000
H        -2.90822792800000   -1.09321392130000   -1.51349844800000
H        -2.66037884120000    0.60037700030000   -2.03476389130000
H        -0.65565588980000    2.31143446730000    0.73167651470000
$end

$rem
BASIS = 6-31G*
GUI = 2
METHOD = B3LYP
PRINT_ORBITALS false
MOLDEN_FORMAT false
--------------------------------------------------------------

             Standard Nuclear Orientation (Angstroms)
    I     Atom           X                Y                Z
 ----------------------------------------------------------------
    1      C       3.9109006407    -1.5375949845    -0.4280401338
    2      C       3.3491913294    -0.3739363406    -0.1234769675
    3      C       1.9210932320    -0.1087209502    -0.0098889049
    4      C       0.9414375782    -1.0974494199    -0.0637400979
    5      C      -0.4182120175    -0.8314825553     0.0639965767
    6      C      -1.3299123435    -1.9801760295     0.0873170821
    7      C      -2.3648722713    -2.1179981329     0.9033177345
    8      C      -0.8220396601     0.5030634377     0.1884948926
    9      S      -2.5288391762     1.0173780558     0.2356688162
   10      C      -3.0913270474     0.3848030604    -1.3745419758
   11      C       0.1274840572     1.5117632836     0.2538675323
   12      C       1.4675878593     1.2005134302     0.1730658054
   13      F       2.3607490389     2.2107784150     0.2436717559
   14      H       4.9804144800    -1.6379187937    -0.4908529204
   15      H       3.3413926632    -2.4284085290    -0.6307902406
   16      H       3.9807093934     0.4866391517     0.0541998315
   17      H       1.2461834569    -2.1268031719    -0.1749631906
   18      H      -1.0564761086    -2.7895681591    -0.5798786921
   19      H      -2.6446623598    -1.3518907466     1.6058697137
   20      H      -2.9688153609    -3.0095634089     0.8979064639
   21      H      -4.1196271705     0.7123437018    -1.4849705103
   22      H      -3.0371006704    -0.6993468116    -1.3859001836
   23      H      -2.4746967347     0.8131332642    -2.1588832851
   24      H      -0.1806242604     2.5396200812     0.3622868878
 ----------------------------------------------------------------

    9    -923.7702052072      3.97e-06  Convergence criterion met
 Total energy in the final basis set =     -923.7702052072

                    Orbital Energies (a.u.)
 --------------------------------------------------------------

 Alpha MOs
 -- Occupied --
-88.8740 -24.7111 -10.2747 -10.2250 -10.2073 -10.2062 -10.2062 -10.2000
-10.1982 -10.1961 -10.1951 -10.1860 -10.1824  -7.9352  -5.9005  -5.8967
 -5.8896  -1.2223  -0.8846  -0.8215  -0.7954  -0.7781  -0.7395  -0.7275
 -0.6633  -0.6320  -0.6085  -0.5906  -0.5510  -0.5241  -0.5156  -0.4861
 -0.4659  -0.4587  -0.4471  -0.4459  -0.4318  -0.4277  -0.4166  -0.4069
 -0.3960  -0.3764  -0.3712  -0.3523  -0.3513  -0.3254  -0.3101  -0.2859
 -0.2437  -0.2388  -0.2102

          Ground-State Mulliken Net Atomic Charges

     Atom                 Charge (a.u.)
  ----------------------------------------
      1 C                    -0.347417
      2 C                    -0.110799
      3 C                     0.107768
      4 C                    -0.247322
      5 C                     0.160680
      6 C                    -0.162990
      7 C                    -0.317414
      8 C                    -0.145255
      9 S                     0.088870
     10 C                    -0.584606
     11 C                    -0.219604
     12 C                     0.316365
     13 F                    -0.289495
     14 H                     0.149498
     15 H                     0.143359
     16 H                     0.146356
     17 H                     0.135189
     18 H                     0.135009
     19 H                     0.176284
     20 H                     0.142921
     21 H                     0.182202
     22 H                     0.192058
     23 H                     0.185159
     24 H                     0.163186
  ----------------------------------------
  Sum of atomic charges =     0.000000

                    Cartesian Multipole Moments
 -----------------------------------------------------------------
    Charge (ESU x 10^10)
                 0.0000
    Dipole Moment (Debye)
         X      -0.2475      Y      -1.8096      Z      -1.2097
       Tot       2.1907
    Quadrupole Moments (Debye-Ang)
        XX     -78.4860     XY      -0.1573     YY     -80.3572
        XZ       2.3798     YZ       0.7642     ZZ     -83.4926

 Total job time:  37.29s(wall), 36.14s(cpu)
        *  Thank you very much for using Q-Chem.  Have a nice day.  *
