 Q-Chem 5.2, Q-Chem, Inc., Pleasanton, CA (2019)
 Q-Chem 5.2.1 for Intel X86 EM64T Linux

User input:
--------------------------------------------------------------
$molecule
0 1
C        -4.54726348950000   -0.33121690080000   -0.16653651150000
C        -3.31623878100000   -0.77073910400000    0.06157774890000
C        -2.10238493140000    0.03903107230000    0.04337099680000
C        -2.10812828430000    1.43472837760000    0.04528593920000
C        -0.92590780790000    2.14943098680000    0.02939446370000
C         0.29543679500000    1.50181866440000    0.01239150260000
C         0.35566860270000    0.10711406340000    0.01502843910000
C         1.59143694430000   -0.65915245130000    0.00070865640000
C         2.83448469580000   -0.20261007360000   -0.01932009160000
F         3.24173632700000    1.06083902490000   -0.03009186120000
F         3.89984242950000   -0.99796532660000   -0.03195544430000
C        -0.85648262490000   -0.58702091720000    0.03376829710000
F        -0.81539057080000   -1.93889131300000    0.03542047450000
H        -5.39013946410000   -0.99947283330000   -0.13673506570000
H        -4.76744166740000    0.69644724790000   -0.39991451450000
H        -3.15848548490000   -1.82150956150000    0.26524287750000
H        -3.04954068840000    1.95920268080000    0.07115566380000
H        -0.95361991110000    3.22839600510000    0.03282136670000
H         1.20348079960000    2.08035793400000    0.00002728890000
H         1.49293275760000   -1.73511388440000    0.00589978860000
$end

$rem
BASIS = 6-31G*
GUI = 2
METHOD = B3LYP
PRINT_ORBITALS false
MOLDEN_FORMAT false
--------------------------------------------------------------

             Standard Nuclear Orientation (Angstroms)
    I     Atom           X                Y                Z
 ----------------------------------------------------------------
    1      C       4.4365595461     0.3672155701    -0.1599230489
    2      C       3.2043836309     0.8046606443     0.0659575316
    3      C       1.9920890833    -0.0074231346     0.0469244429
    4      C       2.0004668244    -1.4031041188     0.0503921351
    5      C       0.8196226442    -2.1200581826     0.0336139986
    6      C      -0.4029180244    -1.4747757931     0.0141612001
    7      C      -0.4657886612    -0.0801855252     0.0151691558
    8      C      -1.7029810347     0.6837264585    -0.0017522500
    9      C      -2.9451342259     0.2248124131    -0.0230396728
   10      F      -3.3499821637    -1.0394156767    -0.0329910938
   11      F      -4.0119738238     1.0181371780    -0.0380670209
   12      C       0.7450210005     0.6162607041     0.0348609056
   13      F       0.7013723971     1.9680519762     0.0349586684
   14      H       5.2781281644     1.0370967118    -0.1296651123
   15      H       4.6590105121    -0.6602874000    -0.3918509238
   16      H       3.0443559400     1.8553551124     0.2682355933
   17      H       2.9428308102    -1.9257683578     0.0781781670
   18      H       0.8493684699    -3.1989644262     0.0382742997
   19      H      -1.3098487882    -2.0550444714     0.0011487018
   20      H      -1.6065174955     1.7598773183     0.0023879025
 ----------------------------------------------------------------

    9    -684.7497870408      3.75e-06  Convergence criterion met
 Total energy in the final basis set =     -684.7497870408

                    Orbital Energies (a.u.)
 --------------------------------------------------------------

 Alpha MOs
 -- Occupied --
-24.7478 -24.7374 -24.7167 -10.3606 -10.2754 -10.2153 -10.2062 -10.2061
-10.1969 -10.1968 -10.1954 -10.1934 -10.1853  -1.2894  -1.2282  -1.2277
 -0.8785  -0.8229  -0.7890  -0.7487  -0.7332  -0.6585  -0.6364  -0.6143
 -0.5812  -0.5739  -0.5441  -0.5227  -0.5211  -0.5041  -0.4803  -0.4703
 -0.4622  -0.4443  -0.4443  -0.4346  -0.4209  -0.4193  -0.4080  -0.3838
 -0.3769  -0.3575  -0.3469  -0.3242  -0.2881  -0.2327  -0.2243

          Ground-State Mulliken Net Atomic Charges

     Atom                 Charge (a.u.)
  ----------------------------------------
      1 C                    -0.348922
      2 C                    -0.106402
      3 C                     0.104025
      4 C                    -0.187721
      5 C                    -0.124629
      6 C                    -0.197791
      7 C                     0.121923
      8 C                    -0.292861
      9 C                     0.548103
     10 F                    -0.234261
     11 F                    -0.244474
     12 C                     0.221998
     13 F                    -0.286771
     14 H                     0.148723
     15 H                     0.143729
     16 H                     0.144900
     17 H                     0.134502
     18 H                     0.133977
     19 H                     0.146016
     20 H                     0.175936
  ----------------------------------------
  Sum of atomic charges =     0.000000

                    Cartesian Multipole Moments
 -----------------------------------------------------------------
    Charge (ESU x 10^10)
                 0.0000
    Dipole Moment (Debye)
         X       1.0115      Y      -0.8816      Z       0.0206
       Tot       1.3420
    Quadrupole Moments (Debye-Ang)
        XX     -69.3335     XY      -0.9694     YY     -67.7332
        XZ      -0.2322     YZ       0.4129     ZZ     -74.1420

 Total job time:  28.81s(wall), 28.71s(cpu)
        *  Thank you very much for using Q-Chem.  Have a nice day.  *
