 Q-Chem 5.4, Q-Chem, Inc., Pleasanton, CA (2021)
 Q-Chem 5.4.2 for Intel X86 EM64T Linux

User input:
--------------------------------------------------------------
$molecule
0 1
C           -1.14410583370000       -3.80696870560000       -0.13395046930000
C           -1.21880460510000       -2.53940147700000        0.25019197260000
C           -0.14115430770000       -1.56122930870000        0.10838932340000
C            1.18551889150000       -1.95792483030000        0.23232517070000
C            2.23314405560000       -1.05953768260000        0.15463250280000
C            1.96607135010000        0.28988622070000       -0.05273367140000
O            2.90416846480000        1.26827991430000       -0.14980810970000
C            4.26092954530000        0.91547811600000       -0.02955161410000
C            0.64240317090000        0.70628928740000       -0.18238713420000
C           -0.41007525870000       -0.19419418490000       -0.10490439050000
C           -1.78696683570000        0.25018998750000       -0.30364659440000
C           -2.27442180650000        1.45281510460000       -0.04544880150000
F           -1.63854483730000        2.49345111740000        0.47797933490000
F           -3.54450286120000        1.79113052640000       -0.26878406020000
H           -1.96366929140000       -4.48969474760000        0.01089068790000
H           -0.27151847710000       -4.20746197160000       -0.62212251770000
H           -2.12770181600000       -2.17907233590000        0.71419381120000
H            1.40439048750000       -2.99843625780000        0.41870111710000
H            3.24380152350000       -1.41988868380000        0.26279489190000
H            4.81723312080000        1.84494667470000       -0.13925242390000
H            4.56634676360000        0.21693158880000       -0.81533666320000
H            4.47762463030000        0.47878937060000        0.95069875280000
H            0.46566034550000        1.75345229440000       -0.36394712210000
H           -2.49016892890000       -0.46319656750000       -0.70569013110000
$end

$rem
BASIS = 6-31G*
GUI = 2
METHOD = B3LYP
PRINT_ORBITALS false
MOLDEN_FORMAT false
$end
--------------------------------------------------------------

             Standard Nuclear Orientation (Angstroms)
    I     Atom           X                Y                Z
 ----------------------------------------------------------------
    1      C      -0.8573261788    -3.8320151863    -0.1560921980
    2      C      -1.0526765733    -2.5811734796     0.2402728474
    3      C      -0.0775096616    -1.5007422099     0.0989338523
    4      C       1.2827277723    -1.7662531770     0.2086938555
    5      C       2.2364090589    -0.7687040680     0.1309643189
    6      C       1.8363867425     0.5496567669    -0.0618575843
    7      O       2.6730510478     1.6162285524    -0.1573632349
    8      C       4.0588900986     1.3973832783    -0.0511171309
    9      C       0.4771554320     0.8351223189    -0.1771773415
   10      C      -0.4811516283    -0.1649877816    -0.0996385177
   11      C      -1.8967007765     0.1436742375    -0.2833625991
   12      C      -2.4975333157     1.2904085922    -0.0102578560
   13      F      -1.9622708266     2.3840423085     0.5176618417
   14      F      -3.7965988332     1.5042140383    -0.2203955739
   15      H      -1.6046289383    -4.5931180511    -0.0110436360
   16      H       0.0460254219    -4.1407742256    -0.6548298455
   17      H      -1.9884323695    -2.3157465097     0.7147605182
   18      H       1.6042838080    -2.7817637305     0.3837505074
   19      H       3.2784630471    -1.0289508807     0.2277917224
   20      H       4.5203088218     2.3778784659    -0.1566713173
   21      H       4.4244638822     0.7388137665    -0.8456906506
   22      H       4.3260044258     0.9758927648     0.9233264464
   23      H       0.1969127720     1.8613491408    -0.3476912125
   24      H      -2.5300081350    -0.6319320280    -0.6863629424
 ----------------------------------------------------------------

    9    -700.0342693111      4.53e-06  Convergence criterion met
 Total energy in the final basis set =     -700.0342693111

                    Orbital Energies (a.u.)
 --------------------------------------------------------------

 Alpha MOs
 -- Occupied --
-24.7401 -24.7319 -19.1795 -10.3547 -10.2465 -10.2414 -10.2045 -10.1990
-10.1895 -10.1886 -10.1882 -10.1858 -10.1809 -10.1782  -1.2821  -1.2213
 -1.0703  -0.8689  -0.8050  -0.7924  -0.7470  -0.7330  -0.6930  -0.6446
 -0.6226  -0.6001  -0.5724  -0.5574  -0.5399  -0.5181  -0.5129  -0.4885
 -0.4761  -0.4729  -0.4492  -0.4390  -0.4369  -0.4342  -0.4280  -0.4162
 -0.4054  -0.3908  -0.3828  -0.3638  -0.3478  -0.3320  -0.3267  -0.2921
 -0.2742  -0.2283  -0.2069

          Ground-State Mulliken Net Atomic Charges

     Atom                 Charge (a.u.)
  ----------------------------------------
      1 C                    -0.341627
      2 C                    -0.133082
      3 C                     0.099727
      4 C                    -0.197823
      5 C                    -0.194528
      6 C                     0.385947
      7 O                    -0.504141
      8 C                    -0.215163
      9 C                    -0.252418
     10 C                     0.130818
     11 C                    -0.321872
     12 C                     0.556786
     13 F                    -0.233653
     14 F                    -0.249013
     15 H                     0.141476
     16 H                     0.142266
     17 H                     0.137621
     18 H                     0.132056
     19 H                     0.129998
     20 H                     0.170650
     21 H                     0.151266
     22 H                     0.151778
     23 H                     0.141975
     24 H                     0.170957
  ----------------------------------------
  Sum of atomic charges =     0.000000

                    Cartesian Multipole Moments
 -----------------------------------------------------------------
    Charge (ESU x 10^10)
                 0.0000
    Dipole Moment (Debye)
         X       2.0155      Y      -1.0548      Z      -0.0442
       Tot       2.2753
    Quadrupole Moments (Debye-Ang)
        XX     -67.6613     XY       3.0974     YY     -77.8782
        XZ       0.1658     YZ      -0.1375     ZZ     -81.4838

 Total job time:  42.38s(wall), 41.72s(cpu)
        *  Thank you very much for using Q-Chem.  Have a nice day.  *
