 Q-Chem 5.4, Q-Chem, Inc., Pleasanton, CA (2021)
 Q-Chem 5.4.2 for Intel X86 EM64T Linux

User input:
--------------------------------------------------------------
$molecule
0 1
C           -1.59745125530000       -2.87196805100000       -0.82214344790000
C           -1.34309620530000       -1.86940792400000        0.00751718440000
C           -0.12427111070000       -1.06565717650000        0.00607522010000
C            1.09642434190000       -1.63293839410000       -0.34941262510000
C            2.28382524630000       -0.93008847570000       -0.28559097380000
C            2.28176154850000        0.38650437590000        0.16591116120000
O            3.38262627600000        1.17512351390000        0.29321909320000
C            4.63556007580000        0.64342415250000       -0.06428648520000
C            1.07089918890000        0.96989762250000        0.52909437070000
C           -0.12530395070000        0.27300022980000        0.43649021290000
C           -1.34957482900000        0.99449441100000        0.79012827650000
C           -2.48574285330000        0.97553704410000        0.11504067400000
F           -2.74571520640000        0.31942759210000       -1.00829494080000
F           -3.56494056480000        1.67423134310000        0.46878070110000
H           -2.50991990300000       -3.43854670690000       -0.75699428560000
H           -0.92018566300000       -3.14821590480000       -1.61242762440000
H           -2.07468274210000       -1.60321385620000        0.76062303010000
H            1.11860676110000       -2.66517783990000       -0.66382127410000
H            3.20049993640000       -1.42015079410000       -0.57296082520000
H            5.35488898470000        1.44143293210000        0.11236089490000
H            4.66480803580000        0.35822962470000       -1.12076451550000
H            4.89672066470000       -0.22143209750000        0.55408410080000
H            1.08058989760000        1.99433525070000        0.86744448190000
H           -1.30975233770000        1.65265941180000        1.64555046850000
$end

$rem
BASIS = 6-31G*
GUI = 2
METHOD = B3LYP
PRINT_ORBITALS false
MOLDEN_FORMAT false
$end
--------------------------------------------------------------

             Standard Nuclear Orientation (Angstroms)
    I     Atom           X                Y                Z
 ----------------------------------------------------------------
    1      C       1.7944319892     2.8844384150    -0.0354743656
    2      C       1.4933792056     1.7098415409     0.5010416820
    3      C       0.2511325057     0.9765230332     0.2760548880
    4      C      -0.9445271743     1.6583588725     0.0668306213
    5      C      -2.1536331143     1.0043361207    -0.0684808155
    6      C      -2.2003362856    -0.3836606829     0.0240332949
    7      O      -3.3268220464    -1.1399403796    -0.0713682438
    8      C      -4.5557320558    -0.4908058226    -0.2921896010
    9      C      -1.0151434863    -1.0827085589     0.2363714057
   10      C       0.2031557752    -0.4272405204     0.3424469301
   11      C       1.3977728296    -1.2575214257     0.5097090854
   12      C       2.5472881758    -1.1025458629    -0.1239923239
   13      F       2.8493835233    -0.1860041617    -1.0342877990
   14      F       3.5976130716    -1.9058701984     0.0476499082
   15      H       2.7220915547     3.3828453514     0.1856434220
   16      H       1.1417730287     3.3799500965    -0.7340837654
   17      H       2.2013714172     1.2318417579     1.1670069912
   18      H      -0.9292544396     2.7369854745     0.0322686659
   19      H      -3.0491654736     1.5834897513    -0.2285990860
   20      H      -5.3022037143    -1.2820925889    -0.3380339555
   21      H      -4.5551971944     0.0603641515    -1.2379953760
   22      H      -4.8030124689     0.1917384078     0.5272914171
   23      H      -1.0625125519    -2.1589435834     0.2957136790
   24      H       1.3209866712    -2.1138771939     1.1633701671
 ----------------------------------------------------------------

    9    -700.0315469909      5.02e-06  Convergence criterion met
 Total energy in the final basis set =     -700.0315469909

                    Orbital Energies (a.u.)
 --------------------------------------------------------------

 Alpha MOs
 -- Occupied --
-24.7353 -24.7310 -19.1804 -10.3537 -10.2475 -10.2423 -10.2043 -10.1992
-10.1894 -10.1885 -10.1870 -10.1837 -10.1831 -10.1719  -1.2793  -1.2188
 -1.0709  -0.8692  -0.8050  -0.7896  -0.7473  -0.7331  -0.6927  -0.6409
 -0.6228  -0.5982  -0.5683  -0.5615  -0.5419  -0.5152  -0.5037  -0.4912
 -0.4749  -0.4738  -0.4495  -0.4385  -0.4357  -0.4309  -0.4256  -0.4152
 -0.4074  -0.3902  -0.3814  -0.3647  -0.3458  -0.3316  -0.3277  -0.2848
 -0.2709  -0.2317  -0.2068

          Ground-State Mulliken Net Atomic Charges

     Atom                 Charge (a.u.)
  ----------------------------------------
      1 C                    -0.344716
      2 C                    -0.125425
      3 C                     0.116279
      4 C                    -0.197044
      5 C                    -0.192398
      6 C                     0.383323
      7 O                    -0.505059
      8 C                    -0.215556
      9 C                    -0.236972
     10 C                     0.115542
     11 C                    -0.342602
     12 C                     0.566549
     13 F                    -0.227584
     14 F                    -0.248716
     15 H                     0.139747
     16 H                     0.138535
     17 H                     0.133180
     18 H                     0.133137
     19 H                     0.130975
     20 H                     0.170430
     21 H                     0.152130
     22 H                     0.151763
     23 H                     0.135407
     24 H                     0.169075
  ----------------------------------------
  Sum of atomic charges =     0.000000

                    Cartesian Multipole Moments
 -----------------------------------------------------------------
    Charge (ESU x 10^10)
                 0.0000
    Dipole Moment (Debye)
         X      -2.3088      Y       0.5189      Z       0.2357
       Tot       2.3781
    Quadrupole Moments (Debye-Ang)
        XX     -69.7563     XY      -1.4025     YY     -76.4867
        XZ       3.3599     YZ      -1.8045     ZZ     -80.7853

 Total job time:  52.53s(wall), 50.57s(cpu)
        *  Thank you very much for using Q-Chem.  Have a nice day.  *
