 Q-Chem 5.4, Q-Chem, Inc., Pleasanton, CA (2021)
 Q-Chem 5.4.2 for Intel X86 EM64T Linux

User input:
--------------------------------------------------------------
$molecule
0 1
C           -4.56752714370000       -1.79419074850000       -0.01342379250000
C           -3.26655357680000       -1.96197570430000       -0.21962949000000
C           -2.22993754030000       -0.94208689740000       -0.13512486400000
C           -2.48530097840000        0.38639107870000        0.20143092200000
C           -1.47033069740000        1.32108288950000        0.24781658920000
C           -0.15331233820000        0.96181470920000       -0.02343417930000
O            0.88831976300000        1.82860890830000       -0.05740660750000
C            0.66266007640000        3.18253653730000        0.24992009380000
C            0.13298194230000       -0.38211563730000       -0.33159131220000
C            1.49205726250000       -0.84219031220000       -0.60917835550000
C            2.59763905060000       -0.46019299860000        0.00701160820000
F            2.71734932010000        0.37371514350000        1.02818296290000
F            3.80534612120000       -0.93587580480000       -0.30476174680000
C           -0.90838443290000       -1.29559862010000       -0.40252567850000
H           -5.25716646460000       -2.61589748600000       -0.10103177160000
H           -5.00024222780000       -0.84412931900000        0.24845596440000
H           -2.90242197920000       -2.94804106600000       -0.48167548330000
H           -3.49179795990000        0.70426266000000        0.42265071120000
H           -1.71432224820000        2.34193841310000        0.49615071070000
H            1.63657295750000        3.66334037780000        0.17545088420000
H            0.27816403400000        3.30433957180000        1.26708176760000
H           -0.02730243080000        3.64743504010000       -0.46197453220000
H            1.60947032200000       -1.59771816850000       -1.37213509540000
H           -0.67724200980000       -2.31997295710000       -0.65861145070000
$end

$rem
BASIS = 6-31G*
GUI = 2
METHOD = B3LYP
PRINT_ORBITALS false
MOLDEN_FORMAT false
$end
--------------------------------------------------------------

             Standard Nuclear Orientation (Angstroms)
    I     Atom           X                Y                Z
 ----------------------------------------------------------------
    1      C       4.7725416753     0.5994491191     0.2191433594
    2      C       3.5630790848     1.1204138259     0.0488470901
    3      C       2.2999976271     0.3968813988    -0.0060443977
    4      C       2.2006847707    -0.9864799151     0.1346056899
    5      C       0.9812251374    -1.6286586286     0.0540464867
    6      C      -0.1933598814    -0.9112656334    -0.1530411455
    7      O      -1.4190480506    -1.4703968120    -0.3031896736
    8      C      -1.5526678429    -2.8664303865    -0.1948936435
    9      C      -0.1208787540     0.4907681475    -0.2631400701
   10      C      -1.3104228372     1.3162114531    -0.4617281422
   11      C      -2.4943172653     1.1458066125     0.1015473522
   12      F      -2.8512228442     0.2349456526     0.9934414004
   13      F      -3.5325359345     1.9524230297    -0.1297642897
   14      C       1.1194570256     1.1093812114    -0.2101136379
   15      H       5.6500212728     1.2222119950     0.2451331597
   16      H       4.9427268187    -0.4565580184     0.3388346846
   17      H       3.4683327170     2.1934170164    -0.0663575079
   18      H       3.0869560571    -1.5781221058     0.3004352296
   19      H       0.9513942556    -2.7024105984     0.1515889830
   20      H      -2.6139565745    -3.0678338894    -0.3302714613
   21      H      -1.2416089741    -3.2238944617     0.7913887053
   22      H      -0.9822724544    -3.3869347814    -0.9712293398
   23      H      -1.2102435585     2.1762023055    -1.1075539710
   24      H       1.1628314130     2.1843156645    -0.3149187378
 ----------------------------------------------------------------

    9    -700.0333295464      4.49e-06  Convergence criterion met
 Total energy in the final basis set =     -700.0333295464

                    Orbital Energies (a.u.)
 --------------------------------------------------------------

 Alpha MOs
 -- Occupied --
-24.7282 -24.7240 -19.1821 -10.3467 -10.2501 -10.2433 -10.2000 -10.1938
-10.1894 -10.1890 -10.1885 -10.1882 -10.1871 -10.1749  -1.2729  -1.2120
 -1.0748  -0.8672  -0.8098  -0.7821  -0.7416  -0.7412  -0.6950  -0.6403
 -0.6125  -0.6061  -0.5685  -0.5562  -0.5402  -0.5169  -0.5061  -0.4824
 -0.4751  -0.4737  -0.4529  -0.4404  -0.4280  -0.4262  -0.4247  -0.4121
 -0.4014  -0.3885  -0.3826  -0.3653  -0.3468  -0.3382  -0.3263  -0.2892
 -0.2736  -0.2305  -0.2020

          Ground-State Mulliken Net Atomic Charges

     Atom                 Charge (a.u.)
  ----------------------------------------
      1 C                    -0.358941
      2 C                    -0.111167
      3 C                     0.183851
      4 C                    -0.190614
      5 C                    -0.194555
      6 C                     0.329926
      7 O                    -0.504258
      8 C                    -0.216470
      9 C                     0.130791
     10 C                    -0.315913
     11 C                     0.569915
     12 F                    -0.231847
     13 F                    -0.254382
     14 C                    -0.273070
     15 H                     0.141694
     16 H                     0.138635
     17 H                     0.124594
     18 H                     0.128009
     19 H                     0.132753
     20 H                     0.173201
     21 H                     0.154311
     22 H                     0.152216
     23 H                     0.163228
     24 H                     0.128093
  ----------------------------------------
  Sum of atomic charges =     0.000000

                    Cartesian Multipole Moments
 -----------------------------------------------------------------
    Charge (ESU x 10^10)
                 0.0000
    Dipole Moment (Debye)
         X       0.6998      Y      -1.6460      Z      -0.2823
       Tot       1.8107
    Quadrupole Moments (Debye-Ang)
        XX     -80.6627     XY       3.5271     YY     -67.3075
        XZ       1.1440     YZ      -1.4090     ZZ     -82.0773

 Total job time:  60.72s(wall), 56.93s(cpu)
        *  Thank you very much for using Q-Chem.  Have a nice day.  *
