 Q-Chem 5.2, Q-Chem, Inc., Pleasanton, CA (2019)
 Q-Chem 5.2.1 for Intel X86 EM64T Linux

User input:
--------------------------------------------------------------
$molecule
0 1
C         0.93873301790000   -4.07649332330000   -0.11266961350000
C         1.60934120570000   -2.93373024160000   -0.03007624240000
C         1.02919151980000   -1.59828412240000    0.00178489400000
C        -0.33168940630000   -1.33975475110000   -0.04982620970000
C        -0.86327302940000   -0.05188077520000   -0.00003301100000
C        -2.33771931230000   -0.00468523210000   -0.02899411930000
O        -3.03716081200000   -0.98572439750000   -0.11748906550000
O        -2.88278925390000    1.23373207680000    0.06331708600000
C        -4.30231420190000    1.27690276770000    0.03846083670000
C        -0.00202905050000    1.06650971310000    0.07917853630000
N        -0.46294523310000    2.34050651250000    0.12191033160000
C         1.39495037800000    0.83330034320000    0.10382053320000
C         2.38555083790000    1.91325953720000    0.17233366510000
C         2.35619159910000    3.04438324760000   -0.52041912360000
C         1.85662773280000   -0.47320595040000    0.08960829690000
F         3.19457115360000   -0.66046300530000    0.14233545620000
H         1.45323806810000   -5.02151168830000   -0.13074728700000
H        -0.13518738130000   -4.12021911740000   -0.16540759960000
H         2.69013974980000   -2.95755062800000    0.01946432090000
H        -1.03545545380000   -2.15344073150000   -0.12000151740000
H        -4.57572361360000    2.32806192760000    0.08760677110000
H        -4.71307224210000    0.73179498310000    0.89057164180000
H        -4.67795064590000    0.82401037750000   -0.88075523030000
H        -1.44600112040000    2.48095708440000    0.27694949410000
H         0.18179189770000    3.05716417750000    0.41236284620000
H         3.23103602640000    1.70745733880000    0.81753592490000
H         1.58299156500000    3.26527271560000   -1.23751536280000
H         3.14261443390000    3.77398693580000   -0.42664140940000
$end

$rem
BASIS = 6-31G*
GUI = 2
METHOD = B3LYP
PRINT_ORBITALS false
MOLDEN_FORMAT false
--------------------------------------------------------------

             Standard Nuclear Orientation (Angstroms)
    I     Atom           X                Y                Z
 ----------------------------------------------------------------
    1      C      -2.2030151422    -3.5869938209     0.1162612537
    2      C      -2.4826874646    -2.2920503377     0.0305335759
    3      C      -1.5140995612    -1.2049797455    -0.0029347398
    4      C      -0.1406516906    -1.3847314458     0.0502471169
    5      C       0.7669475749    -0.3277058874    -0.0011380096
    6      C       2.1822202648    -0.7437518794     0.0299578403
    7      O       2.5398341238    -1.8940783846     0.1213299938
    8      O       3.0872048123     0.2619848111    -0.0638329328
    9      C       4.4490542115    -0.1407239905    -0.0369172371
   10      C       0.2985723673     1.0036906890    -0.0837259377
   11      N       1.1347019208     2.0696424661    -0.1281304137
   12      C      -1.1012720067     1.2188386576    -0.1100402328
   13      C      -1.7045435615     2.5541935632    -0.1820533439
   14      C      -1.3236311788     3.6209916580     0.5086396567
   15      C      -1.9482634970     0.1221810727    -0.0940959665
   16      F      -3.2776413110     0.3624594143    -0.1484917516
   17      H      -2.9871806746    -4.3237591560     0.1353195327
   18      H      -1.1966371126    -3.9641384114     0.1706991403
   19      H      -3.5167180288    -1.9769088366    -0.0205917383
   20      H       0.2734038293    -2.3774861191     0.1229951969
   21      H       5.0374168638     0.7721636334    -0.0876043578
   22      H       4.6695362641    -0.7888253820    -0.8873934210
   23      H       4.6634964938    -0.6862909930     0.8837040674
   24      H       2.1125241851     1.8953838805    -0.2819483170
   25      H       0.7465708629     2.9512860560    -0.4208857760
   26      H      -2.5714400236     2.6215792195    -0.8281457540
   27      H      -0.5207412983     3.5906955720     1.2264888422
   28      H      -1.8424663905     4.5596659342     0.4123209006
 ----------------------------------------------------------------

    9    -769.5122525987      6.59e-06  Convergence criterion met
 Total energy in the final basis set =     -769.5122525987

                    Orbital Energies (a.u.)
 --------------------------------------------------------------

 Alpha MOs
 -- Occupied --
-24.7144 -19.2015 -19.1305 -14.3467 -10.3152 -10.2762 -10.2513 -10.2453
-10.2019 -10.1997 -10.1987 -10.1953 -10.1919 -10.1878 -10.1848 -10.1711
 -1.2250  -1.1126  -1.0175  -0.9412  -0.8600  -0.8088  -0.7872  -0.7545
 -0.7298  -0.7167  -0.6450  -0.6371  -0.6019  -0.5764  -0.5619  -0.5513
 -0.5331  -0.5183  -0.4902  -0.4898  -0.4833  -0.4719  -0.4647  -0.4597
 -0.4459  -0.4319  -0.4150  -0.4117  -0.4065  -0.4045  -0.3789  -0.3774
 -0.3641  -0.3470  -0.3433  -0.3350  -0.3083  -0.2998  -0.2764  -0.2660
 -0.2382  -0.1962

          Ground-State Mulliken Net Atomic Charges

     Atom                 Charge (a.u.)
  ----------------------------------------
      1 C                    -0.357927
      2 C                    -0.110160
      3 C                     0.120634
      4 C                    -0.266720
      5 C                     0.043595
      6 C                     0.610374
      7 O                    -0.493060
      8 O                    -0.499991
      9 C                    -0.216371
     10 C                     0.255180
     11 N                    -0.837384
     12 C                     0.028025
     13 C                    -0.129781
     14 C                    -0.359963
     15 C                     0.230772
     16 F                    -0.281292
     17 H                     0.141915
     18 H                     0.145720
     19 H                     0.137835
     20 H                     0.171203
     21 H                     0.159715
     22 H                     0.173627
     23 H                     0.176463
     24 H                     0.363381
     25 H                     0.331271
     26 H                     0.150360
     27 H                     0.163846
     28 H                     0.148731
  ----------------------------------------
  Sum of atomic charges =     0.000000

                    Cartesian Multipole Moments
 -----------------------------------------------------------------
    Charge (ESU x 10^10)
                 0.0000
    Dipole Moment (Debye)
         X       1.9401      Y       3.1024      Z      -0.7606
       Tot       3.7373
    Quadrupole Moments (Debye-Ang)
        XX     -81.9517     XY       6.0163     YY     -86.6429
        XZ      -0.3026     YZ      -1.3511     ZZ     -93.2224

 Total job time:  49.37s(wall), 48.99s(cpu)
        *  Thank you very much for using Q-Chem.  Have a nice day.  *
