 Q-Chem 5.4, Q-Chem, Inc., Pleasanton, CA (2021)
 Q-Chem 5.4.2 for Intel X86 EM64T Linux

User input:
--------------------------------------------------------------
$molecule
0 1
C           -3.21976417850000        3.24793672960000       -0.29914017040000
C           -3.33919124480000        1.95098377140000       -0.04070583530000
C           -2.27420055560000        0.95720020620000       -0.03694966460000
C           -2.58322508750000       -0.37112599600000        0.25355550630000
C           -1.61486114090000       -1.35569744240000        0.24974180740000
C           -0.28816898760000       -1.04397505620000       -0.02864182650000
O            0.71412347820000       -1.95282309850000       -0.11244135710000
C            0.43241199860000       -3.30694964170000        0.14325959420000
C            0.05279135740000        0.29788160700000       -0.29072105990000
C            1.42886918150000        0.70412829980000       -0.57117657710000
C            2.52180701480000        0.25181216900000        0.01929812970000
F            2.61258458040000       -0.61899350090000        1.01222532240000
F            3.74724261970000        0.68046218800000       -0.29132144450000
C           -0.94283700930000        1.26259106890000       -0.31269899390000
H           -4.07407486860000        3.90227830020000       -0.27677841940000
H           -2.27939655610000        3.71206275590000       -0.54132826680000
H           -4.31917618640000        1.55420995480000        0.19589652490000
H           -3.60499848200000       -0.64258959260000        0.47700921720000
H           -1.90317713850000       -2.37284112730000        0.46283504210000
H            1.38218111980000       -3.82723915210000        0.03196826990000
H           -0.28918289620000       -3.71042495850000       -0.57466818890000
H            0.05890796110000       -3.45363344010000        1.16122098880000
H            1.57302993480000        1.47710946120000       -1.31166240500000
H           -0.66017041080000        2.27982952600000       -0.53412758520000
$end

$rem
BASIS = 6-31G*
GUI = 2
METHOD = B3LYP
PRINT_ORBITALS false
MOLDEN_FORMAT false
$end
--------------------------------------------------------------

             Standard Nuclear Orientation (Angstroms)
    I     Atom           X                Y                Z
 ----------------------------------------------------------------
    1      C       4.2261076145    -1.5959310145     0.0408693433
    2      C       3.7653589110    -0.3554486796     0.1506523766
    3      C       2.3769517503     0.0746190309     0.0547755177
    4      C       2.0724220383     1.4285423668     0.1907651134
    5      C       0.7754023345     1.8913184540     0.0873127500
    6      C      -0.2759519845     1.0092390881    -0.1393377554
    7      O      -1.5678816446     1.3810520689    -0.3133784773
    8      C      -1.9068119553     2.7425821943    -0.2145605064
    9      C       0.0045144641    -0.3675868818    -0.2452037364
   10      C      -1.0505872394    -1.3558782378    -0.4627409553
   11      C      -2.2535835211    -1.3605204385     0.0854759408
   12      F      -2.7486065124    -0.5145656008     0.9752849888
   13      F      -3.1620422121    -2.3069689683    -0.1612136771
   14      C       1.3185573824    -0.8035297431    -0.1699159522
   15      H       5.2773656527    -1.8103054891     0.1269496309
   16      H       3.5873437389    -2.4436830399    -0.1370534550
   17      H       4.4690645157     0.4485178810     0.3301428096
   18      H       2.8682760880     2.1369569096     0.3707931168
   19      H       0.5891790083     2.9494079394     0.1815657633
   20      H      -2.9830004904     2.7862174945    -0.3728719546
   21      H      -1.4022850294     3.3395830690    -0.9813423280
   22      H      -1.6723241470     3.1433894188     0.7762148668
   23      H      -0.8192425588    -2.1889794376    -1.1100611927
   24      H       1.5102361305    -1.8601470075    -0.2725040598
 ----------------------------------------------------------------

    9    -700.0333873873      5.10e-06  Convergence criterion met
 Total energy in the final basis set =     -700.0333873873

                    Orbital Energies (a.u.)
 --------------------------------------------------------------

 Alpha MOs
 -- Occupied --
-24.7284 -24.7242 -19.1823 -10.3470 -10.2503 -10.2433 -10.2012 -10.1939
-10.1894 -10.1888 -10.1879 -10.1876 -10.1869 -10.1746  -1.2731  -1.2122
 -1.0749  -0.8672  -0.8097  -0.7829  -0.7428  -0.7381  -0.6972  -0.6383
 -0.6163  -0.6015  -0.5677  -0.5617  -0.5392  -0.5119  -0.5049  -0.4913
 -0.4765  -0.4661  -0.4538  -0.4406  -0.4309  -0.4277  -0.4225  -0.4063
 -0.4015  -0.3940  -0.3858  -0.3577  -0.3492  -0.3382  -0.3268  -0.2887
 -0.2742  -0.2292  -0.2029

          Ground-State Mulliken Net Atomic Charges

     Atom                 Charge (a.u.)
  ----------------------------------------
      1 C                    -0.357121
      2 C                    -0.115219
      3 C                     0.184283
      4 C                    -0.205438
      5 C                    -0.194567
      6 C                     0.329989
      7 O                    -0.504219
      8 C                    -0.216311
      9 C                     0.130026
     10 C                    -0.315734
     11 C                     0.570620
     12 F                    -0.231782
     13 F                    -0.254246
     14 C                    -0.257545
     15 H                     0.141453
     16 H                     0.139712
     17 H                     0.123646
     18 H                     0.128363
     19 H                     0.132416
     20 H                     0.173101
     21 H                     0.152300
     22 H                     0.154339
     23 H                     0.163723
     24 H                     0.128211
  ----------------------------------------
  Sum of atomic charges =     0.000000

                    Cartesian Multipole Moments
 -----------------------------------------------------------------
    Charge (ESU x 10^10)
                 0.0000
    Dipole Moment (Debye)
         X       0.4792      Y       1.8693      Z      -0.2624
       Tot       1.9475
    Quadrupole Moments (Debye-Ang)
        XX     -78.8366     XY      -4.4543     YY     -68.4210
        XZ       1.1390     YZ       1.5135     ZZ     -82.0292

 Total job time:  66.63s(wall), 57.78s(cpu)
        *  Thank you very much for using Q-Chem.  Have a nice day.  *
