 Q-Chem 5.2, Q-Chem, Inc., Pleasanton, CA (2019)
 Q-Chem 5.2.1 for Intel X86 EM64T Linux

User input:
--------------------------------------------------------------
$molecule
0 1
C        -4.43666567950000    0.82285358040000   -0.62493365120000
C        -3.62574555570000   -0.17723664590000   -0.29950382470000
C        -2.18791759450000   -0.08563659920000   -0.07337936910000
C        -1.37751391570000   -1.16260727270000   -0.39708970050000
C         0.01013228990000   -1.11468118910000   -0.24264930040000
C         0.81953052760000   -2.28880048690000   -0.54171017660000
C         1.93539712730000   -2.62930464700000    0.08902617390000
C         0.53525080330000    0.09555412250000    0.22417000370000
C         2.00942944020000    0.34563746710000    0.31225285680000
O         2.61061774620000    0.63979288910000    1.31087791340000
O         2.57211073070000    0.23253263070000   -0.89805585760000
C         3.97600946620000    0.43790385340000   -0.96448451370000
N        -0.22062135440000    1.11345773390000    0.60031101590000
C        -1.54200097410000    1.04420550590000    0.48860329820000
N        -2.22072151620000    2.14637290830000    0.91906604540000
H        -5.48652669270000    0.65452683620000   -0.79634088280000
H        -4.08189218960000    1.82755717240000   -0.77840466620000
H        -4.02643929570000   -1.18197496950000   -0.22917848070000
H        -1.83144194750000   -2.06336858530000   -0.78842897930000
H         0.42046471960000   -2.93362756410000   -1.31546112660000
H         2.33725062480000   -2.04422993790000    0.89925457010000
H         2.47975536900000   -3.52090165920000   -0.17238751470000
H         4.49859734020000   -0.46934527990000   -0.65258997230000
H         4.26852098550000    1.26130559230000   -0.30984408870000
H         4.20714724280000    0.66737234170000   -2.00177129180000
H        -1.66298103750000    2.78436675840000    1.46476561450000
H        -3.17973758100000    2.02300844550000    1.20022136520000
$end

$rem
BASIS = 6-31G*
GUI = 2
METHOD = B3LYP
PRINT_ORBITALS false
MOLDEN_FORMAT false
--------------------------------------------------------------

             Standard Nuclear Orientation (Angstroms)
    I     Atom           X                Y                Z
 ----------------------------------------------------------------
    1      C       4.4860959152     0.0983911050    -0.7339131810
    2      C       3.5318101631     0.8277628289    -0.1673162594
    3      C       2.1351720237     0.4432891488     0.0013668188
    4      C       1.1508251046     1.4184807346    -0.0369847997
    5      C      -0.2054595318     1.1028407960     0.0751497304
    6      C      -1.2040266299     2.1639034388     0.0865013294
    7      C      -2.3426513434     2.1352891459     0.7659457196
    8      C      -0.5123474205    -0.2574201379     0.1928325282
    9      C      -1.9227281525    -0.7616783836     0.1855706992
   10      O      -2.4397749129    -1.4059780766     1.0589247788
   11      O      -2.5296586407    -0.4250984748    -0.9601166362
   12      C      -3.8823319087    -0.8341815112    -1.1031126649
   13      N       0.4100130427    -1.1994656420     0.2965339551
   14      C       1.6986450133    -0.8858792953     0.2301273875
   15      N       2.5602158935    -1.9351390918     0.3623477780
   16      H       5.4891092580     0.4771406191    -0.8360675669
   17      H       4.2963712351    -0.8735136654    -1.1561128405
   18      H       3.7645082405     1.8294027028     0.1755676770
   19      H       1.4402358544     2.4529955791    -0.1657810958
   20      H      -0.9374420500     3.0480483207    -0.4800377256
   21      H      -2.6207502643     1.2977262678     1.3835362944
   22      H      -3.0325851918     2.9617634111     0.7427117390
   23      H      -4.5374681803    -0.1417919275    -0.5693801374
   24      H      -4.0179235648    -1.8386426937    -0.6971814711
   25      H      -4.1014704294    -0.8142649069    -2.1678313867
   26      H       2.1297179208    -2.7783048302     0.7082403150
   27      H       3.4935436492    -1.7345005496     0.6826950785
 ----------------------------------------------------------------

    9    -686.3084703937      5.65e-06  Convergence criterion met
 Total energy in the final basis set =     -686.3084703937

                    Orbital Energies (a.u.)
 --------------------------------------------------------------

 Alpha MOs
 -- Occupied --
-19.1858 -19.1295 -14.3473 -14.3236 -10.3076 -10.2634 -10.2329 -10.2308
-10.2040 -10.2028 -10.2024 -10.1966 -10.1910 -10.1879 -10.1774  -1.1032
 -1.0131  -0.9749  -0.9012  -0.8325  -0.8071  -0.7602  -0.7461  -0.7153
 -0.6605  -0.6340  -0.5983  -0.5784  -0.5702  -0.5374  -0.5248  -0.4927
 -0.4853  -0.4738  -0.4716  -0.4671  -0.4532  -0.4353  -0.4225  -0.4202
 -0.4055  -0.3954  -0.3858  -0.3707  -0.3565  -0.3489  -0.3343  -0.3181
 -0.2974  -0.2821  -0.2738  -0.2545  -0.2492  -0.2031

          Ground-State Mulliken Net Atomic Charges

     Atom                 Charge (a.u.)
  ----------------------------------------
      1 C                    -0.367877
      2 C                    -0.137491
      3 C                     0.142805
      4 C                    -0.229631
      5 C                     0.143728
      6 C                    -0.118720
      7 C                    -0.362179
      8 C                     0.200823
      9 C                     0.535837
     10 O                    -0.468415
     11 O                    -0.421362
     12 C                    -0.223522
     13 N                    -0.549539
     14 C                     0.425079
     15 N                    -0.775132
     16 H                     0.147200
     17 H                     0.167629
     18 H                     0.138932
     19 H                     0.136884
     20 H                     0.131517
     21 H                     0.165907
     22 H                     0.142109
     23 H                     0.160280
     24 H                     0.178728
     25 H                     0.164324
     26 H                     0.341917
     27 H                     0.330169
  ----------------------------------------
  Sum of atomic charges =     0.000000

                    Cartesian Multipole Moments
 -----------------------------------------------------------------
    Charge (ESU x 10^10)
                 0.0000
    Dipole Moment (Debye)
         X       1.9956      Y       1.4031      Z      -0.8446
       Tot       2.5815
    Quadrupole Moments (Debye-Ang)
        XX     -69.5438     XY      -4.4828     YY     -81.5246
        XZ       7.7056     YZ       0.8789     ZZ     -89.7880

 Total job time:  44.74s(wall), 44.52s(cpu)
        *  Thank you very much for using Q-Chem.  Have a nice day.  *
