 Q-Chem 5.2, Q-Chem, Inc., Pleasanton, CA (2019)
 Q-Chem 5.2.1 for Intel X86 EM64T Linux

User input:
--------------------------------------------------------------
$molecule
0 1
C        -4.33120122100000    0.91547648980000   -0.37219746900000
C        -3.36876448790000    1.28906716820000    0.46060620260000
C        -1.96955133340000    0.87181666020000    0.38423174090000
C        -0.99308002400000    1.81725159100000    0.69868290170000
C         0.35562567280000    1.53344751960000    0.58486955190000
C         0.73428579710000    0.27180600120000    0.16867730640000
S         2.44242283080000   -0.25076657560000   -0.04199773430000
C         3.49816301630000    1.14115898750000    0.46584422830000
O         2.68517168040000   -1.34686118560000    0.85708188420000
O         2.65830556960000   -0.48656341660000   -1.44465721440000
C        -0.20951799440000   -0.69212066010000   -0.11305713350000
C        -1.57276779390000   -0.41910969390000   -0.01358378920000
C        -2.54299717530000   -1.48642542960000   -0.24965501450000
C        -2.38804522930000   -2.45983923980000   -1.13675182140000
H        -5.33651792320000    1.28811602310000   -0.27141009110000
H        -4.14625701090000    0.24889521820000   -1.19736168780000
H        -3.58699356810000    2.00854684310000    1.24074082010000
H        -1.30407391070000    2.80135444780000    1.01911759530000
H         1.08818461180000    2.28791708780000    0.82203041600000
H         3.29604635340000    1.36974016550000    1.50387983970000
H         3.30452483740000    1.98173265500000   -0.18720489910000
H         4.52009038490000    0.80194192690000    0.34791418920000
H         0.13453509250000   -1.67528849240000   -0.39252465050000
H        -3.43333521620000   -1.44916488670000    0.36524728700000
H        -1.53442798260000   -2.50537837220000   -1.79188489990000
H        -3.12344471730000   -3.23708168820000   -1.25451046870000
$end

$rem
BASIS = 6-31G*
GUI = 2
METHOD = B3LYP
PRINT_ORBITALS false
MOLDEN_FORMAT false
--------------------------------------------------------------

             Standard Nuclear Orientation (Angstroms)
    I     Atom           X                Y                Z
 ----------------------------------------------------------------
    1      C       4.3114160097     0.6887905314     0.4985125721
    2      C       3.3293363623     1.3312357917    -0.1197107447
    3      C       1.9258589706     0.9218318378    -0.1388969391
    4      C       0.9573608287     1.9238525343    -0.0741757542
    5      C      -0.3919378621     1.6266565749    -0.0144020894
    6      C      -0.7801573514     0.3011800345    -0.0415381316
    7      S      -2.4898998155    -0.2512720577     0.0407758335
    8      C      -3.5356422135     1.2369659363     0.0797384036
    9      O      -2.7822971170    -0.9712017403    -1.1695545465
   10      O      -2.6640812123    -0.9522683384     1.2849318445
   11      C       0.1542812801    -0.7067920582    -0.1420926148
   12      C       1.5183826750    -0.4247416392    -0.1926385846
   13      C       2.4758106045    -1.5143473013    -0.3724407442
   14      C       2.3319199235    -2.7318926919     0.1328947781
   15      H       5.3196474647     1.0671159814     0.4941335212
   16      H       4.1412309736    -0.2191026975     1.0518640687
   17      H       3.5352407255     2.2731767604    -0.6139126874
   18      H       1.2759377260     2.9562095360    -0.0496440478
   19      H      -1.1177161210     2.4212686106     0.0484456282
   20      H      -3.3634111195     1.8062746208    -0.8240549925
   21      H      -3.3051281094     1.8015103479     0.9734306620
   22      H      -4.5592897914     0.8842641807     0.1122708945
   23      H      -0.1986555185    -1.7240204935    -0.2035379800
   24      H       3.3460740125    -1.2741123674    -0.9700390983
   25      H       1.4995147658    -2.9939250514     0.7640653279
   26      H       3.0562033094    -3.5069831758    -0.0499539251
 ----------------------------------------------------------------

    9    -974.9166304253      6.60e-06  Convergence criterion met
 Total energy in the final basis set =     -974.9166304253

                    Orbital Energies (a.u.)
 --------------------------------------------------------------

 Alpha MOs
 -- Occupied --
-89.0888 -19.1290 -19.1286 -10.2262 -10.2256 -10.2154 -10.2154 -10.2146
-10.2081 -10.2080 -10.2040 -10.1973 -10.1937 -10.1868  -8.1188  -6.0829
 -6.0823  -6.0822  -1.1100  -0.9980  -0.8916  -0.8231  -0.8027  -0.7781
 -0.7556  -0.7377  -0.6657  -0.6465  -0.6028  -0.5861  -0.5639  -0.5294
 -0.5039  -0.4906  -0.4742  -0.4702  -0.4668  -0.4555  -0.4473  -0.4341
 -0.4312  -0.4279  -0.4108  -0.3932  -0.3847  -0.3651  -0.3584  -0.3275
 -0.3230  -0.3058  -0.3028  -0.2901  -0.2876  -0.2539  -0.2354

          Ground-State Mulliken Net Atomic Charges

     Atom                 Charge (a.u.)
  ----------------------------------------
      1 C                    -0.337987
      2 C                    -0.139169
      3 C                     0.106203
      4 C                    -0.178381
      5 C                    -0.162155
      6 C                    -0.104771
      7 S                     1.058992
      8 C                    -0.650924
      9 O                    -0.515647
     10 O                    -0.512359
     11 C                    -0.208469
     12 C                     0.111314
     13 C                    -0.136463
     14 C                    -0.341957
     15 H                     0.150320
     16 H                     0.168632
     17 H                     0.139958
     18 H                     0.138770
     19 H                     0.141575
     20 H                     0.202273
     21 H                     0.202776
     22 H                     0.227703
     23 H                     0.180954
     24 H                     0.153491
     25 H                     0.156549
     26 H                     0.148772
  ----------------------------------------
  Sum of atomic charges =     0.000000

                    Cartesian Multipole Moments
 -----------------------------------------------------------------
    Charge (ESU x 10^10)
                 0.0000
    Dipole Moment (Debye)
         X       2.5979      Y       4.1471      Z      -0.0891
       Tot       4.8945
    Quadrupole Moments (Debye-Ang)
        XX     -80.9650     XY     -12.4133     YY     -81.9785
        XZ      -0.8731     YZ      -1.0516     ZZ     -96.3050

 Total job time:  42.37s(wall), 41.81s(cpu)
        *  Thank you very much for using Q-Chem.  Have a nice day.  *
