 Q-Chem 5.2, Q-Chem, Inc., Pleasanton, CA (2019)
 Q-Chem 5.2.1 for Intel X86 EM64T Linux

User input:
--------------------------------------------------------------
$molecule
0 1
C        -6.86779022540000    0.14591868750000    0.55930434560000
C        -5.69504388510000   -0.34411201500000    0.17877526560000
C        -4.38364295310000    0.25406692090000    0.41079684990000
C        -4.18800015320000    1.46501181210000    1.08182269760000
C        -2.89736244280000    1.93715921370000    1.24507872290000
C        -1.84011872650000    1.20125892520000    0.74095124780000
C        -2.12484590920000    0.00298195710000    0.08333251940000
C        -1.03589007500000   -0.81793262450000   -0.46668203360000
C        -1.30020111950000   -2.04899663870000   -1.07053417280000
C        -0.23466445030000   -2.78496839310000   -1.55495492240000
C         1.04716388870000   -2.27383631690000   -1.43570090350000
C         1.21402739330000   -1.02713247060000   -0.82868391610000
C         2.55062469850000   -0.42102784590000   -0.67100821610000
C         3.54384999600000   -0.59319817640000   -1.63735656080000
C         4.77580746320000    0.00254308350000   -1.42629433710000
C         4.98167571500000    0.74223462390000   -0.27646293950000
C         3.92823843940000    0.87358067290000    0.63378594660000
C         4.01529457000000    1.63484028460000    1.87640362460000
C         5.06854592100000    2.30978621610000    2.31846234320000
N         2.74835452410000    0.29775594310000    0.42332217710000
N         0.19266049170000   -0.32932036340000   -0.35533237970000
N        -3.36253126380000   -0.44972273430000   -0.07206216970000
H        -7.78671698020000   -0.37089878840000    0.34113787850000
H        -6.96753078270000    1.07233874360000    1.09924813090000
H        -5.64607535390000   -1.27996472350000   -0.36151622980000
H        -5.02730871300000    2.02201988310000    1.46624993300000
H        -2.71958650320000    2.87025955060000    1.76131043760000
H        -0.81375207610000    1.51414753590000    0.83765050100000
H        -2.31825947550000   -2.39517143100000   -1.13789863180000
H        -0.39692612700000   -3.74838603420000   -2.01788979310000
H         1.90039547940000   -2.83569232230000   -1.78355163300000
H         3.34948436950000   -1.15731033620000   -2.53630697650000
H         5.56722701210000   -0.10784795940000   -2.15462877430000
H         5.93488643850000    1.21058986980000   -0.09136226270000
H         3.09915098030000    1.61096553530000    2.45042133880000
H         5.99958759010000    2.36164693440000    1.77934175730000
H         5.03754790460000    2.84504065590000    3.25209273750000
$end

$rem
BASIS = 6-31G*
GUI = 2
METHOD = B3LYP
PRINT_ORBITALS false
MOLDEN_FORMAT false
--------------------------------------------------------------

             Standard Nuclear Orientation (Angstroms)
    I     Atom           X                Y                Z
 ----------------------------------------------------------------
    1      C       6.8637971991    -0.5820798650    -0.0137768604
    2      C       5.7054042099     0.0602936734     0.0620411363
    3      C       4.3741377709    -0.5245500036    -0.0687717116
    4      C       4.1401828245    -1.8826751090    -0.3047814658
    5      C       2.8336963796    -2.3268561956    -0.4102221111
    6      C       1.7988234913    -1.4181769314    -0.2806145446
    7      C       2.1215025828    -0.0800343326    -0.0468363550
    8      C       1.0577101677     0.9240806213     0.1026307804
    9      C       1.3630586200     2.2539273357     0.3997610216
   10      C       0.3204591538     3.1503391564     0.5450830092
   11      C      -0.9803066413     2.7036954457     0.3805255635
   12      C      -1.1890072798     1.3578945441     0.0709330747
   13      C      -2.5478839591     0.8144799890    -0.1210866909
   14      C      -3.5584445498     1.5785199105    -0.7084354191
   15      C      -4.8108576860     1.0073276859    -0.8580178073
   16      C      -5.0193298468    -0.2892292995    -0.4254477013
   17      C      -3.9482818620    -0.9872998215     0.1411991670
   18      C      -4.0365514201    -2.3615597813     0.6257729056
   19      C      -5.1078278025    -3.1437117451     0.5955810589
   20      N      -2.7487900464    -0.4309071512     0.2813482029
   21      N      -0.1890126824     0.4988545013    -0.0565611289
   22      N       3.3744155386     0.3451309266     0.0551328146
   23      H       7.7997168473    -0.0615084040     0.0966000283
   24      H       6.9345926756    -1.6426675588    -0.1866448294
   25      H       5.6857409781     1.1274356798     0.2379797749
   26      H       4.9625792352    -2.5730071186    -0.4026947395
   27      H       2.6264164688    -3.3723278794    -0.5913289955
   28      H       0.7618918706    -1.7020091758    -0.3505473726
   29      H       2.3940903435     2.5450925462     0.5138407252
   30      H       0.5151727961     4.1858086108     0.7873652904
   31      H      -1.8153537705     3.3748788027     0.5105087992
   32      H      -3.3627655931     2.5805718379    -1.0573108355
   33      H      -5.6161955483     1.5690069640    -1.3107312413
   34      H      -5.9881099880    -0.7507154453    -0.5290100285
   35      H      -3.1046296336    -2.7240001102     1.0375303689
   36      H      -6.0549758229    -2.8247409103     0.1939003851
   37      H      -5.0761486406    -4.1496774392     0.9778811487
 ----------------------------------------------------------------

    9    -897.2789870415      2.89e-06  Convergence criterion met
 Total energy in the final basis set =     -897.2789870415

                    Orbital Energies (a.u.)
 --------------------------------------------------------------

 Alpha MOs
 -- Occupied --
-14.3202 -14.3198 -14.3192 -10.2250 -10.2239 -10.2232 -10.2228 -10.2200
-10.2182 -10.2056 -10.2018 -10.1994 -10.1960 -10.1955 -10.1948 -10.1920
-10.1874 -10.1862 -10.1859 -10.1840 -10.1836 -10.1823  -0.9617  -0.9489
 -0.9342  -0.8158  -0.8076  -0.8035  -0.8001  -0.7963  -0.7704  -0.7402
 -0.7215  -0.6602  -0.6567  -0.6399  -0.6360  -0.6059  -0.6004  -0.5698
 -0.5562  -0.5242  -0.5106  -0.5062  -0.4946  -0.4909  -0.4742  -0.4684
 -0.4580  -0.4481  -0.4369  -0.4270  -0.4218  -0.4181  -0.4103  -0.4095
 -0.4048  -0.3973  -0.3858  -0.3807  -0.3719  -0.3604  -0.3543  -0.3496
 -0.3157  -0.3064  -0.2941  -0.2899  -0.2748  -0.2600  -0.2523  -0.2491
 -0.2412  -0.2308  -0.2194

          Ground-State Mulliken Net Atomic Charges

     Atom                 Charge (a.u.)
  ----------------------------------------
      1 C                    -0.347963
      2 C                    -0.093742
      3 C                     0.316730
      4 C                    -0.175527
      5 C                    -0.100173
      6 C                    -0.155800
      7 C                     0.257551
      8 C                     0.269733
      9 C                    -0.152757
     10 C                    -0.102188
     11 C                    -0.170162
     12 C                     0.260431
     13 C                     0.247585
     14 C                    -0.167860
     15 C                    -0.102196
     16 C                    -0.173546
     17 C                     0.308183
     18 C                    -0.092063
     19 C                    -0.347432
     20 N                    -0.531998
     21 N                    -0.539556
     22 N                    -0.584934
     23 H                     0.148079
     24 H                     0.142605
     25 H                     0.140747
     26 H                     0.133893
     27 H                     0.140262
     28 H                     0.178828
     29 H                     0.163109
     30 H                     0.139776
     31 H                     0.137654
     32 H                     0.138516
     33 H                     0.139817
     34 H                     0.134938
     35 H                     0.148304
     36 H                     0.141820
     37 H                     0.149336
  ----------------------------------------
  Sum of atomic charges =     0.000000

                    Cartesian Multipole Moments
 -----------------------------------------------------------------
    Charge (ESU x 10^10)
                 0.0000
    Dipole Moment (Debye)
         X      -1.3394      Y       0.5768      Z      -0.6022
       Tot       1.5777
    Quadrupole Moments (Debye-Ang)
        XX    -101.9027     XY      -6.5482     YY    -107.7496
        XZ       3.1915     YZ       0.5973     ZZ    -129.5901

 Total job time:  85.59s(wall), 84.81s(cpu)
        *  Thank you very much for using Q-Chem.  Have a nice day.  *
