 Q-Chem 5.2, Q-Chem, Inc., Pleasanton, CA (2019)
 Q-Chem 5.2.1 for Intel X86 EM64T Linux

User input:
--------------------------------------------------------------
$molecule
0 1
C        -2.35138499180000   -1.85894657580000   -0.68003970170000
C        -2.42070174230000   -0.70285116030000   -0.03356832910000
C        -1.36385108760000    0.30509238820000    0.02907747700000
C        -1.72592417020000    1.65316725180000    0.08692301060000
N        -0.85983750530000    2.64470839010000    0.14305273270000
C         0.42377122870000    2.35252725130000    0.13289982320000
C         0.93746213010000    1.05201820450000    0.06097214460000
C         2.39242327920000    0.89037602070000    0.08295348930000
C         3.10049977400000    0.06905063090000   -0.67804174040000
C         0.00825282500000    0.00425166980000    0.02769753430000
C         0.45200118710000   -1.42717949880000    0.11747275770000
O         1.03562055760000   -2.02618968140000   -0.73826744320000
O         0.14778247130000   -2.01897819320000    1.28954037420000
H        -3.18942311800000   -2.53429658660000   -0.70250007260000
H        -1.47718979740000   -2.17019238450000   -1.22483742050000
H        -3.34454705020000   -0.41287146020000    0.45251364800000
H        -2.76971643940000    1.93834414380000    0.09306035210000
H         1.09763148180000    3.19755898880000    0.18542587440000
H         2.89978577940000    1.58112642990000    0.74705625280000
H         2.64528960580000   -0.60352799040000   -1.38281195120000
H         4.17557834780000    0.04890976840000   -0.61680210760000
H        -0.34975294530000   -1.44108709480000    1.88286680770000
$end

$rem
BASIS = 6-31G*
GUI = 2
METHOD = B3LYP
PRINT_ORBITALS false
MOLDEN_FORMAT false
--------------------------------------------------------------

             Standard Nuclear Orientation (Angstroms)
    I     Atom           X                Y                Z
 ----------------------------------------------------------------
    1      C       2.8773506539    -0.8168186741     0.6930173472
    2      C       2.4979107077     0.3068673645     0.0991809462
    3      C       1.1304924570     0.8197134695     0.0362190481
    4      C       0.9319802871     2.2025195435     0.0499719031
    5      N      -0.2538765866     2.7749818214     0.0005664242
    6      C      -1.3177357047     2.0014300618    -0.0537081860
    7      C      -1.2775591295     0.6018777127    -0.0575525386
    8      C      -2.5496860832    -0.1175012366    -0.1453606326
    9      C      -2.8915068704    -1.1914305945     0.5509839242
   10      C      -0.0110502951     0.0038894838    -0.0307701915
   11      C       0.1484070506    -1.4794628588    -0.1987183167
   12      O      -0.1688367066    -2.3055922508     0.6066279977
   13      O       0.6857407571    -1.8388108455    -1.3813673482
   14      H       3.9132948161    -1.1082751761     0.7209960279
   15      H       2.1860163648    -1.4761077481     1.1882855203
   16      H       3.2420320484     0.9629525007    -0.3363529700
   17      H       1.7782467373     2.8751044203     0.0982265035
   18      H      -2.2692558623     2.5148332483    -0.0978876144
   19      H      -3.2747121449     0.3532592219    -0.7998123997
   20      H      -2.2223994886    -1.6682502893     1.2446824461
   21      H      -3.8697647145    -1.6293875224     0.4453657119
   22      H       0.9268275057    -1.0802822653    -1.9291332122
 ----------------------------------------------------------------

    9    -591.6278193055      5.65e-06  Convergence criterion met
 Total energy in the final basis set =     -591.6278193055

                    Orbital Energies (a.u.)
 --------------------------------------------------------------

 Alpha MOs
 -- Occupied --
-19.2026 -19.1466 -14.3396 -10.3326 -10.2316 -10.2312 -10.2307 -10.2237
-10.2230 -10.2091 -10.2002 -10.1977 -10.1872  -1.1144  -1.0341  -0.9639
 -0.8516  -0.8259  -0.7678  -0.7491  -0.6868  -0.6553  -0.6328  -0.5990
 -0.5736  -0.5535  -0.5199  -0.4981  -0.4711  -0.4677  -0.4597  -0.4500
 -0.4414  -0.4272  -0.4167  -0.4028  -0.3950  -0.3784  -0.3588  -0.3335
 -0.3177  -0.3164  -0.2892  -0.2723  -0.2539  -0.2431

          Ground-State Mulliken Net Atomic Charges

     Atom                 Charge (a.u.)
  ----------------------------------------
      1 C                    -0.335142
      2 C                    -0.161357
      3 C                     0.101917
      4 C                    -0.012826
      5 N                    -0.395350
      6 C                    -0.009189
      7 C                     0.106863
      8 C                    -0.161315
      9 C                    -0.323274
     10 C                    -0.048650
     11 C                     0.537786
     12 O                    -0.433907
     13 O                    -0.551091
     14 H                     0.155590
     15 H                     0.185907
     16 H                     0.144129
     17 H                     0.147591
     18 H                     0.149549
     19 H                     0.142213
     20 H                     0.193655
     21 H                     0.147792
     22 H                     0.419109
  ----------------------------------------
  Sum of atomic charges =     0.000000

                    Cartesian Multipole Moments
 -----------------------------------------------------------------
    Charge (ESU x 10^10)
                 0.0000
    Dipole Moment (Debye)
         X       0.8343      Y       1.1658      Z      -1.5938
       Tot       2.1437
    Quadrupole Moments (Debye-Ang)
        XX     -62.3358     XY       1.3246     YY     -88.3944
        XZ      -0.1342     YZ      -1.1399     ZZ     -72.8083

 Total job time:  34.09s(wall), 33.95s(cpu)
        *  Thank you very much for using Q-Chem.  Have a nice day.  *
