 Q-Chem 5.2, Q-Chem, Inc., Pleasanton, CA (2019)
 Q-Chem 5.2.1 for Intel X86 EM64T Linux

User input:
--------------------------------------------------------------
$molecule
0 1
C         4.74439407340000   -2.78304840480000    0.09148630790000
C         4.33633713380000   -1.57301917890000   -0.27258001770000
C         3.04255159870000   -0.96679000430000    0.01057180740000
C         2.03793857100000   -1.60608647950000    0.74062558300000
C         0.82055157330000   -0.99560211140000    0.93627678580000
C         0.55693271150000    0.28294888860000    0.44020068100000
O        -0.71115569630000    0.74842793880000    0.64941598830000
C        -1.35093871960000    1.50432152660000   -0.35787550970000
C        -2.79441481170000    1.02546872550000   -0.64455866410000
C        -3.63246714290000    0.80142479080000    0.62213333660000
C        -3.33539986820000   -0.54600277370000    1.27740244390000
C        -3.44731274720000   -1.64948788590000    0.22972472350000
C        -2.52192599360000   -1.32196293070000   -0.93941121530000
O        -2.83882869090000   -0.07543093360000   -1.52809071380000
C         1.57873420470000    0.97893723090000   -0.22145888180000
C         1.49484585920000    2.39014605200000   -0.61439528730000
C         1.03840681320000    3.35197087860000    0.17478476880000
C         2.78308935350000    0.31986938100000   -0.45102194990000
H         5.72470734410000   -3.14389377440000   -0.16839932550000
H         4.12906596880000   -3.46110626140000    0.65727903440000
H         5.01002840920000   -0.94427531630000   -0.84258179730000
H         2.20021552940000   -2.59478397370000    1.13923603130000
H         0.03610950150000   -1.50216271630000    1.47868052770000
H        -0.78995646230000    1.45259707700000   -1.29702593700000
H        -1.39997179740000    2.55480524050000   -0.04205803710000
H        -3.24969052680000    1.83619963040000   -1.22961442840000
H        -4.68691077070000    0.83052115900000    0.33706414740000
H        -3.44111139010000    1.61643417430000    1.32049956090000
H        -4.04133217530000   -0.72088876970000    2.09212544830000
H        -2.32844965120000   -0.53344329130000    1.69301888240000
H        -4.47508454090000   -1.70756508900000   -0.13567558770000
H        -3.17311087690000   -2.61736200430000    0.65143434300000
H        -2.63789188750000   -2.04869096480000   -1.74752762390000
H        -1.47681839770000   -1.33702408040000   -0.60484569050000
H         1.92143378100000    2.63525767670000   -1.57976822190000
H         0.65911112450000    3.14140005470000    1.16132426870000
H         1.04235103780000    4.38507391040000   -0.12885930010000
H         3.55879635280000    0.85327708880000   -0.98412224650000
$end

$rem
BASIS = 6-31G*
GUI = 2
METHOD = B3LYP
PRINT_ORBITALS false
MOLDEN_FORMAT false
--------------------------------------------------------------

             Standard Nuclear Orientation (Angstroms)
    I     Atom           X                Y                Z
 ----------------------------------------------------------------
    1      C       5.1599752050    -1.9651525255    -0.1228370016
    2      C       4.5607041574    -0.8059610944    -0.3685500875
    3      C       3.1860166473    -0.4488628280    -0.0456184280
    4      C       2.2991310523    -1.3134947396     0.5999599426
    5      C       0.9990513177    -0.9309011990     0.8374815738
    6      C       0.5310584862     0.3324192194     0.4696727974
    7      O      -0.7955202127     0.5631085540     0.7051752125
    8      C      -1.5504517090     1.3052018227    -0.2300839020
    9      C      -2.8974469342     0.6316173603    -0.5864521104
   10      C      -3.6867771158     0.1463450896     0.6376821579
   11      C      -3.1744459525    -1.1955281470     1.1573749577
   12      C      -3.1069783030    -2.1891041002     0.0014824746
   13      C      -2.2481534290    -1.5981825858    -1.1137411277
   14      O      -2.7636260444    -0.3653814008    -1.5777477144
   15      C       1.4257802146     1.2484467538    -0.1018497533
   16      C       1.1137285825     2.6603961877    -0.3507858598
   17      C       0.5081453541     3.4497266977     0.5246997542
   18      C       2.7208454899     0.8195460562    -0.3782391192
   19      H       6.1855674523    -2.1343926892    -0.4026268179
   20      H       4.6633395672    -2.7881194583     0.3615089630
   21      H       5.1229238386    -0.0215434405    -0.8611744701
   22      H       2.6200152091    -2.2986665298     0.8986516526
   23      H       0.3077030309    -1.6104369047     1.3133214637
   24      H      -0.9894647067     1.4414364930    -1.1607362187
   25      H      -1.7688841206     2.2959318218     0.1899188390
   26      H      -3.4787774568     1.4139586208    -1.0932536494
   27      H      -4.7322694950     0.0339615298     0.3405659753
   28      H      -3.6294238000     0.9054709148     1.4180739065
   29      H      -3.8418383719    -1.5648081678     1.9389878622
   30      H      -2.1824410410    -1.0633314580     1.5878326154
   31      H      -4.1120957730    -2.3744957387    -0.3839705327
   32      H      -2.6790047533    -3.1381414589     0.3270169742
   33      H      -2.2455445480    -2.2472171507    -1.9931620629
   34      H      -1.2140993184    -1.4786131589    -0.7661119228
   35      H       1.4939322140     3.0689812187    -1.2794975144
   36      H       0.1690274613     3.0805050255     1.4787122739
   37      H       0.3441765894     4.4955640839     0.3275816228
   38      H       3.3992296975     1.5230674143    -0.8422365580
 ----------------------------------------------------------------

    9    -772.1248743330      2.04e-06  Convergence criterion met
 Total energy in the final basis set =     -772.1248743330

                    Orbital Energies (a.u.)
 --------------------------------------------------------------

 Alpha MOs
 -- Occupied --
-19.1755 -19.1367 -10.2486 -10.2323 -10.2309 -10.2164 -10.1967 -10.1942
-10.1911 -10.1893 -10.1890 -10.1881 -10.1862 -10.1818 -10.1766 -10.1762
-10.1726 -10.1709  -1.0673  -1.0271  -0.8668  -0.8051  -0.7958  -0.7872
 -0.7697  -0.7380  -0.7259  -0.6898  -0.6372  -0.6338  -0.6141  -0.6078
 -0.5894  -0.5528  -0.5349  -0.5288  -0.4957  -0.4908  -0.4864  -0.4739
 -0.4613  -0.4542  -0.4453  -0.4353  -0.4274  -0.4244  -0.4191  -0.4141
 -0.3956  -0.3848  -0.3781  -0.3751  -0.3709  -0.3605  -0.3501  -0.3449
 -0.3422  -0.3283  -0.3165  -0.3147  -0.2960  -0.2792  -0.2719  -0.2399
 -0.2348  -0.2074

          Ground-State Mulliken Net Atomic Charges

     Atom                 Charge (a.u.)
  ----------------------------------------
      1 C                    -0.357468
      2 C                    -0.112007
      3 C                     0.187730
      4 C                    -0.186806
      5 C                    -0.183161
      6 C                     0.308699
      7 O                    -0.526867
      8 C                    -0.054085
      9 C                     0.118274
     10 C                    -0.277570
     11 C                    -0.277990
     12 C                    -0.274563
     13 C                    -0.038479
     14 O                    -0.477835
     15 C                     0.126742
     16 C                    -0.148694
     17 C                    -0.328719
     18 C                    -0.273685
     19 H                     0.142563
     20 H                     0.139869
     21 H                     0.125309
     22 H                     0.130145
     23 H                     0.142113
     24 H                     0.156301
     25 H                     0.136471
     26 H                     0.130900
     27 H                     0.138925
     28 H                     0.135220
     29 H                     0.128889
     30 H                     0.165139
     31 H                     0.136902
     32 H                     0.128690
     33 H                     0.137627
     34 H                     0.135170
     35 H                     0.138648
     36 H                     0.155995
     37 H                     0.143378
     38 H                     0.128230
  ----------------------------------------
  Sum of atomic charges =     0.000000

                    Cartesian Multipole Moments
 -----------------------------------------------------------------
    Charge (ESU x 10^10)
                 0.0000
    Dipole Moment (Debye)
         X       0.0880      Y       0.5480      Z       0.4468
       Tot       0.7125
    Quadrupole Moments (Debye-Ang)
        XX    -105.3036     XY      -1.4673     YY     -98.4886
        XZ      -5.6170     YZ      -3.3571     ZZ    -111.7950

 Total job time:  87.79s(wall), 87.54s(cpu)
        *  Thank you very much for using Q-Chem.  Have a nice day.  *
