 Q-Chem 5.2, Q-Chem, Inc., Pleasanton, CA (2019)
 Q-Chem 5.2.1 for Intel X86 EM64T Linux

User input:
--------------------------------------------------------------
$molecule
0 1
C        -0.05587071560000   -2.88728763600000   -2.60826218640000
C         0.15756309970000   -2.69905250030000   -1.30804319670000
C         0.80759020840000   -1.55348400800000   -0.73091115590000
C         1.38560125130000   -0.46525695400000   -1.33374148300000
C         1.90378224750000    0.49645842590000   -0.44528788330000
C         2.48780664040000    1.78752470390000   -0.93335476450000
C         1.68225532640000    3.02513443580000   -0.50248679780000
C         0.49087458370000    3.35419298970000   -1.40515899190000
C        -0.57863230200000    2.26758776630000   -1.51613696480000
C        -1.23817903320000    1.89819908350000   -0.19032479770000
C        -2.24068265580000    0.76013709490000   -0.37018243810000
C        -2.82672824700000    0.29875779510000    0.96186894940000
C        -3.90197469900000   -0.77765141130000    0.80348001940000
C        -3.37447450400000   -2.14678295040000    0.36987054150000
C        -2.59546772610000   -2.85871367300000    1.46945974300000
C         1.75216073620000    0.12086510460000    0.87584627390000
C         2.14833778410000    0.70839565510000    2.12998355560000
C         2.96888394020000    1.73498805800000    2.34217921480000
S         0.92112327690000   -1.40729414880000    0.99137046140000
H        -0.55507797510000   -3.76845722500000   -2.97040978920000
H         0.25711505150000   -2.17413633200000   -3.35118679540000
H        -0.18099247930000   -3.43894269670000   -0.59466413450000
H         1.44531184320000   -0.35844062680000   -2.40322120250000
H         2.54310609450000    1.75914219400000   -2.02364944030000
H         3.51090666180000    1.87787804250000   -0.55949811810000
H         2.34948174000000    3.89107698850000   -0.51794665910000
H         1.33921762220000    2.89768017480000    0.52381543250000
H         0.86295948280000    3.57158554100000   -2.41043804000000
H         0.02629788250000    4.26806773750000   -1.02484720680000
H        -0.14076901720000    1.37016008410000   -1.95243950320000
H        -1.35095632960000    2.61918410280000   -2.20593919560000
H        -1.74295136730000    2.77336042920000    0.22615718550000
H        -0.47823231580000    1.58292194980000    0.52559882460000
H        -1.73636087270000   -0.07602909810000   -0.85873148670000
H        -3.04948871990000    1.08815027930000   -1.02819836190000
H        -3.27209994330000    1.16161974450000    1.46416793580000
H        -2.02317436890000   -0.07122428470000    1.60069882240000
H        -4.63238879880000   -0.43131587000000    0.06765081970000
H        -4.42645852120000   -0.89561973100000    1.75518212900000
H        -2.74247846610000   -2.03857391310000   -0.51321322250000
H        -4.22732993160000   -2.76909203950000    0.08670839810000
H        -1.69439853970000   -2.31010111260000    1.73020268410000
H        -2.30311753550000   -3.85419597010000    1.14192155820000
H        -3.20690419610000   -2.96058778320000    2.36382100110000
H         1.72664180380000    0.20109062210000    2.99058523110000
H         3.45045735340000    2.28165100240000    1.55361651830000
H         3.19238750020000    2.05396882630000    3.34565614250000
$end

$rem
BASIS = 6-31G*
GUI = 2
METHOD = B3LYP
PRINT_ORBITALS false
MOLDEN_FORMAT false
--------------------------------------------------------------

             Standard Nuclear Orientation (Angstroms)
    I     Atom           X                Y                Z
 ----------------------------------------------------------------
    1      C      -1.7896959599    -2.0089065410    -2.8294403698
    2      C      -1.5706515848    -2.0944656884    -1.5193811822
    3      C      -0.3569597274    -1.7050946797    -0.8535838421
    4      C       0.8240467027    -1.2335979268    -1.3680290909
    5      C       1.8020423863    -0.9150415970    -0.4063617248
    6      C       3.1154340111    -0.3033606747    -0.7897607277
    7      C       3.3044269425     1.1260635951    -0.2537888054
    8      C       2.6721115317     2.2184579190    -1.1194310862
    9      C       1.1590026118     2.1197201491    -1.3134008003
   10      C       0.3540953579     2.1922107777    -0.0187590686
   11      C      -1.1391612042     2.0152468385    -0.2859967491
   12      C      -1.9498063385     1.9699770310     1.0068629892
   13      C      -3.4581303422     1.8857670326     0.7665171102
   14      C      -3.9423539810     0.5418616043     0.2185750750
   15      C      -3.8816922084    -0.5773408791     1.2512895934
   16      C       1.3745684440    -1.1824436986     0.8801906573
   17      C       1.9961465995    -1.0871058360     2.1761690564
   18      C       3.2777587362    -0.8754135618     2.4674964766
   19      S      -0.2617637538    -1.7837929554     0.8742065127
   20      H      -2.7267705273    -2.3143003359    -3.2600730484
   21      H      -1.0477024024    -1.6336183742    -3.5128774188
   22      H      -2.3479733926    -2.4709183614    -0.8674446353
   23      H       0.9928486444    -1.1229861993    -2.4253998410
   24      H       3.1929033358    -0.2895735651    -1.8789872863
   25      H       3.9242295447    -0.9362339708    -0.4156118970
   26      H       4.3765269618     1.3338475494    -0.2016929706
   27      H       2.9115075295     1.1900311516     0.7604785211
   28      H       3.1450305538     2.2011787076    -2.1055049604
   29      H       2.9063331689     3.1838392820    -0.6624686495
   30      H       0.9183694544     1.1879605721    -1.8246545341
   31      H       0.8454384599     2.9381511590    -1.9674495062
   32      H       0.5308268544     3.1528230481     0.4712917212
   33      H       0.6809846979     1.4074030259     0.6643847445
   34      H      -1.2869295226     1.0888227459    -0.8446535857
   35      H      -1.4972407085     2.8380577885    -0.9101009580
   36      H      -1.7408886717     2.8765172780     1.5810834629
   37      H      -1.6223555236     1.1205096458     1.6084195587
   38      H      -3.7413921804     2.6755965075     0.0659246415
   39      H      -3.9772679897     2.0815956825     1.7082622734
   40      H      -3.3523785635     0.2632042555    -0.6562073040
   41      H      -4.9783333397     0.6585033412    -0.1099873326
   42      H      -2.8569451347    -0.7794756887     1.5511616578
   43      H      -4.3016057387    -1.4934321367     0.8411867586
   44      H      -4.4526261696    -0.3082688002     2.1377147620
   45      H       1.3022531385    -1.2443604072     2.9944624053
   46      H       4.0389171582    -0.7330113972     1.7238944772
   47      H       3.6053685613    -0.8503784019     3.4925396755
 ----------------------------------------------------------------

    8   -1100.9253670840      7.00e-06  Convergence criterion met
 Total energy in the final basis set =    -1100.9253670840

                    Orbital Energies (a.u.)
 --------------------------------------------------------------

 Alpha MOs
 -- Occupied --
-88.9049 -10.2188 -10.2163 -10.2006 -10.1997 -10.1965 -10.1882 -10.1879
-10.1849 -10.1819 -10.1754 -10.1711 -10.1658 -10.1640 -10.1639 -10.1618
-10.1611 -10.1609 -10.1606  -7.9664  -5.9304  -5.9268  -5.9235  -0.8930
 -0.8159  -0.8052  -0.7950  -0.7756  -0.7688  -0.7454  -0.7198  -0.7042
 -0.6833  -0.6465  -0.6180  -0.6155  -0.5995  -0.5866  -0.5545  -0.5441
 -0.5362  -0.5116  -0.4922  -0.4776  -0.4710  -0.4581  -0.4517  -0.4436
 -0.4410  -0.4288  -0.4238  -0.4139  -0.4063  -0.3983  -0.3931  -0.3860
 -0.3798  -0.3693  -0.3686  -0.3618  -0.3539  -0.3523  -0.3468  -0.3407
 -0.3371  -0.3285  -0.3234  -0.3158  -0.3124  -0.3075  -0.3051  -0.3002
 -0.2861  -0.2705  -0.2450  -0.1987

          Ground-State Mulliken Net Atomic Charges

     Atom                 Charge (a.u.)
  ----------------------------------------
      1 C                    -0.343113
      2 C                    -0.089985
      3 C                    -0.127003
      4 C                    -0.172943
      5 C                     0.190274
      6 C                    -0.358112
      7 C                    -0.263555
      8 C                    -0.258386
      9 C                    -0.261743
     10 C                    -0.261000
     11 C                    -0.260001
     12 C                    -0.262146
     13 C                    -0.248402
     14 C                    -0.259207
     15 C                    -0.458142
     16 C                    -0.199819
     17 C                    -0.092265
     18 C                    -0.350802
     19 S                     0.229640
     20 H                     0.149047
     21 H                     0.143806
     22 H                     0.143902
     23 H                     0.138018
     24 H                     0.142219
     25 H                     0.153160
     26 H                     0.126914
     27 H                     0.160294
     28 H                     0.121882
     29 H                     0.127829
     30 H                     0.135549
     31 H                     0.123853
     32 H                     0.121181
     33 H                     0.147457
     34 H                     0.146457
     35 H                     0.120606
     36 H                     0.122332
     37 H                     0.138906
     38 H                     0.123025
     39 H                     0.121023
     40 H                     0.142972
     41 H                     0.125884
     42 H                     0.162487
     43 H                     0.135185
     44 H                     0.139289
     45 H                     0.136172
     46 H                     0.151673
     47 H                     0.145588
  ----------------------------------------
  Sum of atomic charges =     0.000000

                    Cartesian Multipole Moments
 -----------------------------------------------------------------
    Charge (ESU x 10^10)
                -0.0000
    Dipole Moment (Debye)
         X       0.7462      Y      -0.0064      Z      -0.5841
       Tot       0.9476
    Quadrupole Moments (Debye-Ang)
        XX    -122.2144     XY       2.2960     YY    -130.6093
        XZ       1.1973     YZ       0.8290     ZZ    -120.9375

 Total job time:  109.44s(wall), 109.15s(cpu)
        *  Thank you very much for using Q-Chem.  Have a nice day.  *
