 Q-Chem 5.2, Q-Chem, Inc., Pleasanton, CA (2019)
 Q-Chem 5.2.1 for Intel X86 EM64T Linux

User input:
--------------------------------------------------------------
$molecule
0 1
C        -4.75516064850000    0.06994778400000    0.36728880440000
C        -3.55394376990000    0.63662017570000    0.35739411940000
C        -2.28010955630000   -0.03024243970000    0.12578626860000
C        -2.15640301430000   -1.40359971340000   -0.10403708330000
C        -0.92491582240000   -1.98495648250000   -0.31980712820000
C         0.24895726920000   -1.22558079630000   -0.31925312280000
C         1.55979960370000   -1.82046946430000   -0.55827693630000
C         1.89509550530000   -3.06183932780000   -0.22792538290000
C         0.11615415470000    0.14353250030000   -0.09550103390000
S         1.55356773230000    1.21708565510000   -0.01082911310000
N         2.41853737910000    0.65211276990000    1.30303120370000
O         2.38342053160000    1.03427288490000   -1.16245947080000
O         1.11473143410000    2.53463015950000    0.33079547690000
C        -1.10764084940000    0.72960022340000    0.12854953230000
H        -5.64322383070000    0.65061681660000    0.54711414370000
H        -4.90839130090000   -0.98191573220000    0.19720285550000
H        -3.47229910450000    1.70177247670000    0.53222501850000
H        -3.03768806870000   -2.02564814740000   -0.11824453710000
H        -0.86209450580000   -3.04472734180000   -0.51482640900000
H         2.27621121610000   -1.16326995870000   -1.03211639410000
H         1.21277455300000   -3.73079085330000    0.27112211310000
H         2.87671434990000   -3.45175060650000   -0.43477819320000
H         2.76431244510000   -0.28763619360000    1.20267375140000
H         1.95464360420000    0.81294073610000    2.18047489010000
H        -1.13089307130000    1.79448951500000    0.30302146230000
$end

$rem
BASIS = 6-31G*
GUI = 2
METHOD = B3LYP
PRINT_ORBITALS false
MOLDEN_FORMAT false
--------------------------------------------------------------

             Standard Nuclear Orientation (Angstroms)
    I     Atom           X                Y                Z
 ----------------------------------------------------------------
    1      C       4.7068515022     0.4966755271    -0.0901636131
    2      C       3.4659030602     0.9696928950    -0.0692106240
    3      C       2.2391016795     0.1886296247     0.0076014086
    4      C       2.2128768362    -1.2083978601     0.0507145991
    5      C       1.0222821448    -1.8998025197     0.1251255280
    6      C      -0.2059555281    -1.2329498579     0.1621325725
    7      C      -1.4755214936    -1.9464976072     0.2536989717
    8      C      -1.6992252396    -3.1535780779    -0.2517394516
    9      C      -0.1705951223     0.1597238984     0.1249528257
   10      S      -1.6822088137     1.1295165961     0.1057258949
   11      N      -2.4447268386     0.6841844817    -1.3133728869
   12      O      -2.5430058141     0.7361554853     1.1793292754
   13      O      -1.3330536084     2.5087766217    -0.0389827877
   14      C       1.0123194569     0.8563384354     0.0425542234
   15      H       5.5539067629     1.1580755450    -0.1468848192
   16      H       4.9340249695    -0.5548079885    -0.0501592168
   17      H       3.3092033407     2.0400593878    -0.1084775043
   18      H       3.1384308657    -1.7622245553     0.0298535539
   19      H       1.0338140360    -2.9778600839     0.1775870920
   20      H      -2.2600796867    -1.4111322267     0.7709348668
   21      H      -0.9466528662    -3.6996396078    -0.7972282755
   22      H      -2.6554203562    -3.6366949037    -0.1483785406
   23      H      -2.7203874592    -0.2828418740    -1.3537632128
   24      H      -1.9582713973     0.9931535607    -2.1373083843
   25      H       0.9601122819     1.9338922333     0.0090497884
 ----------------------------------------------------------------

    9    -990.9595405387      7.54e-06  Convergence criterion met
 Total energy in the final basis set =     -990.9595405387

                    Orbital Energies (a.u.)
 --------------------------------------------------------------

 Alpha MOs
 -- Occupied --
-89.1136 -19.1414 -19.1408 -14.3644 -10.2276 -10.2236 -10.2161 -10.2103
-10.2098 -10.2095 -10.2049 -10.2036 -10.2013 -10.1940  -8.1396  -6.1045
 -6.1039  -6.1025  -1.1310  -1.0159  -0.9174  -0.8927  -0.8292  -0.7909
 -0.7782  -0.7377  -0.6755  -0.6525  -0.6231  -0.5878  -0.5824  -0.5432
 -0.5353  -0.5122  -0.4993  -0.4888  -0.4784  -0.4561  -0.4452  -0.4439
 -0.4337  -0.4086  -0.3989  -0.3889  -0.3747  -0.3588  -0.3461  -0.3388
 -0.3232  -0.3170  -0.3090  -0.2982  -0.2874  -0.2723  -0.2325

          Ground-State Mulliken Net Atomic Charges

     Atom                 Charge (a.u.)
  ----------------------------------------
      1 C                    -0.350219
      2 C                    -0.110546
      3 C                     0.188843
      4 C                    -0.178818
      5 C                    -0.170284
      6 C                     0.153071
      7 C                    -0.191833
      8 C                    -0.347587
      9 C                    -0.225862
     10 S                     1.191913
     11 N                    -0.817140
     12 O                    -0.517179
     13 O                    -0.503219
     14 C                    -0.251086
     15 H                     0.153354
     16 H                     0.146236
     17 H                     0.140036
     18 H                     0.138083
     19 H                     0.142095
     20 H                     0.211449
     21 H                     0.150200
     22 H                     0.158017
     23 H                     0.353223
     24 H                     0.350860
     25 H                     0.186392
  ----------------------------------------
  Sum of atomic charges =     0.000000

                    Cartesian Multipole Moments
 -----------------------------------------------------------------
    Charge (ESU x 10^10)
                 0.0000
    Dipole Moment (Debye)
         X       3.1683      Y      -4.0018      Z      -3.0000
       Tot       5.9205
    Quadrupole Moments (Debye-Ang)
        XX     -86.4892     XY       8.7654     YY     -87.9610
        XZ       6.1681     YZ      -0.7086     ZZ     -88.9580

 Total job time:  41.63s(wall), 41.50s(cpu)
        *  Thank you very much for using Q-Chem.  Have a nice day.  *
