 Q-Chem 5.2, Q-Chem, Inc., Pleasanton, CA (2019)
 Q-Chem 5.2.1 for Intel X86 EM64T Linux

User input:
--------------------------------------------------------------
$molecule
0 1
C        -6.53056387000000    0.15887794630000   -0.00500876810000
C        -5.41546728170000   -0.56855491690000   -0.00420912250000
C        -4.07939439680000   -0.03809364440000    0.00070720930000
C        -3.64402392330000    1.26588066630000    0.00697764320000
C        -2.25201804210000    1.39048405220000    0.00917191420000
C        -1.59460038860000    0.18150188240000    0.00464609210000
C        -0.19173331970000   -0.05854383880000    0.00375815700000
C         0.46587196550000   -1.26750164500000    0.00217767030000
C         1.85842392340000   -1.14661882740000    0.00027371750000
C         2.28984417370000    0.15851679450000    0.00025619400000
C         3.61788181160000    0.69842770090000   -0.00230819070000
C         4.74884395840000    0.00026934430000   -0.00392342730000
F         4.86792079820000   -1.32296140690000   -0.00300117200000
F         5.95756599650000    0.55492780680000   -0.00679268080000
S         0.94138678860000    1.25952495830000    0.00306460060000
S        -2.72948916580000   -1.13535730680000   -0.00203886060000
H        -7.50003072330000   -0.30657857240000   -0.00905992070000
H        -6.51407355040000    1.23478693110000   -0.00170316340000
H        -5.47800505040000   -1.64904783230000   -0.00782779420000
H        -4.31119101710000    2.10832531880000    0.00983990580000
H        -1.72913959250000    2.33093104740000    0.01377156910000
H        -0.05678831500000   -2.20757941490000    0.00233939410000
H         2.52641804320000   -1.98799298900000   -0.00124112780000
H         3.71650090740000    1.77324378310000   -0.00332540150000
$end

$rem
BASIS = 6-31G*
GUI = 2
METHOD = B3LYP
PRINT_ORBITALS false
MOLDEN_FORMAT false
--------------------------------------------------------------

             Standard Nuclear Orientation (Angstroms)
    I     Atom           X                Y                Z
 ----------------------------------------------------------------
    1      C       6.4161842415    -0.1446765391    -0.0070948568
    2      C       5.3003680730     0.5816479564    -0.0045226021
    3      C       3.9648225530     0.0498542236    -0.0003183696
    4      C       3.5307453576    -1.2545608534     0.0034320548
    5      C       2.1388642039    -1.3805476454     0.0057502843
    6      C       1.4802483953    -0.1722107978     0.0038475035
    7      C       0.0771441044     0.0664460643     0.0038240564
    8      C      -0.5816585102     1.2747524055     0.0048666062
    9      C      -1.9740905400     1.1524939199     0.0030942938
   10      C      -2.4042180754    -0.1530658341     0.0005533578
   11      C      -3.7317210301    -0.6942860855    -0.0027443952
   12      C      -4.8633744150     0.0027531411    -0.0026419468
   13      F      -4.9837613531     1.3258606826     0.0009890188
   14      F      -6.0715473112    -0.5530957872    -0.0063066274
   15      S      -1.0546702950    -1.2527407518     0.0007704688
   16      S       2.6138306527     1.1457830888    -0.0004803271
   17      H       7.3851885337     0.3217475993    -0.0104663733
   18      H       6.4007603164    -1.2206058204    -0.0059610855
   19      H       5.3618347983     1.6622074164    -0.0059726058
   20      H       4.1987471620    -2.0963480884     0.0044100550
   21      H       1.6169186182    -2.3215196580     0.0085888906
   22      H      -0.0599294322     2.2153453479     0.0067886809
   23      H      -2.6429179432     1.9932071221     0.0034617661
   24      H      -3.8292759469    -1.7691951024    -0.0059090355
 ----------------------------------------------------------------

    9   -1458.0851465628      6.95e-06  Convergence criterion met
 Total energy in the final basis set =    -1458.0851465628

                    Orbital Energies (a.u.)
 --------------------------------------------------------------

 Alpha MOs
 -- Occupied --
-88.9128 -88.9097 -24.7482 -24.7405 -10.3618 -10.2316 -10.2289 -10.2282
-10.2215 -10.2148 -10.2012 -10.1952 -10.1949 -10.1937 -10.1931 -10.1847
 -7.9746  -7.9715  -5.9386  -5.9354  -5.9351  -5.9319  -5.9313  -5.9283
 -1.2895  -1.2299  -0.9055  -0.8851  -0.8188  -0.7958  -0.7525  -0.7513
 -0.7358  -0.6957  -0.6468  -0.6206  -0.5994  -0.5818  -0.5752  -0.5422
 -0.5318  -0.5234  -0.5164  -0.4932  -0.4845  -0.4527  -0.4457  -0.4438
 -0.4302  -0.4242  -0.4162  -0.4119  -0.3962  -0.3914  -0.3845  -0.3723
 -0.3652  -0.3544  -0.3415  -0.3249  -0.2910  -0.2638  -0.2561  -0.2381
 -0.1855

          Ground-State Mulliken Net Atomic Charges

     Atom                 Charge (a.u.)
  ----------------------------------------
      1 C                    -0.341929
      2 C                    -0.091106
      3 C                    -0.121738
      4 C                    -0.126885
      5 C                    -0.146436
      6 C                    -0.148031
      7 C                    -0.144365
      8 C                    -0.146548
      9 C                    -0.138052
     10 C                    -0.109330
     11 C                    -0.267820
     12 C                     0.555452
     13 F                    -0.235988
     14 F                    -0.243671
     15 S                     0.254830
     16 S                     0.253215
     17 H                     0.148076
     18 H                     0.142942
     19 H                     0.138034
     20 H                     0.141132
     21 H                     0.152574
     22 H                     0.154925
     23 H                     0.149628
     24 H                     0.171092
  ----------------------------------------
  Sum of atomic charges =     0.000000

                    Cartesian Multipole Moments
 -----------------------------------------------------------------
    Charge (ESU x 10^10)
                 0.0000
    Dipole Moment (Debye)
         X       0.8120      Y      -0.4834      Z      -0.0005
       Tot       0.9450
    Quadrupole Moments (Debye-Ang)
        XX     -98.6621     XY       0.0256     YY     -95.9349
        XZ      -0.0105     YZ      -0.0042     ZZ    -108.7246

 Total job time:  41.20s(wall), 40.63s(cpu)
        *  Thank you very much for using Q-Chem.  Have a nice day.  *
