 Q-Chem 5.2, Q-Chem, Inc., Pleasanton, CA (2019)
 Q-Chem 5.2.1 for Intel X86 EM64T Linux

User input:
--------------------------------------------------------------
$molecule
0 1
C         2.24326418050000   -3.50372575910000    0.08863049380000
C         1.05146908880000   -2.92530255900000   -0.00979285140000
C         0.73253536020000   -1.50373007670000   -0.03353168040000
C        -0.60350829010000   -1.12521534550000   -0.01305580040000
C        -1.01589819360000    0.20452814800000   -0.02567180760000
C        -2.44642267880000    0.52523116220000    0.02351147260000
O        -2.92034044850000    1.64759330990000    0.04252661070000
O        -3.22968818610000   -0.56515157560000    0.05441175390000
C        -4.62559751800000   -0.32125220210000    0.10657816640000
C        -0.04858607350000    1.23730031630000   -0.06589337240000
N        -0.41817985430000    2.53275954670000   -0.07009375040000
C         1.32207632890000    0.88068779310000   -0.10636506480000
C         2.34124995500000    1.93200338210000   -0.21567364060000
C         3.48699643670000    1.95936792570000    0.44850808340000
C         1.66919095350000   -0.45959356150000   -0.08478362620000
F         2.98138997760000   -0.75988327560000   -0.16289199500000
H         2.32905169390000   -4.57738097190000    0.09992045950000
H         3.16561245630000   -2.95777310350000    0.16118636660000
H         0.17265339910000   -3.55666114800000   -0.06983211980000
H        -1.36208092170000   -1.89123365060000    0.02027183500000
H        -5.10328249160000   -1.29762931820000    0.11401899370000
H        -4.94447838950000    0.25577686820000   -0.76420989100000
H        -4.88132574450000    0.23800524030000    1.00929134690000
H        -1.40628232800000    2.73395069000000    0.00592743310000
H         0.26646615100000    3.25724662690000    0.03910367090000
H         2.10594174280000    2.72848331850000   -0.91287856280000
H         3.75675306280000    1.19631106110000    1.15790348100000
H         4.20044502130000    2.75278852530000    0.30484139610000
$end

$rem
BASIS = 6-31G*
GUI = 2
METHOD = B3LYP
PRINT_ORBITALS false
MOLDEN_FORMAT false
--------------------------------------------------------------

             Standard Nuclear Orientation (Angstroms)
    I     Atom           X                Y                Z
 ----------------------------------------------------------------
    1      C       2.6913337094    -3.1853332813     0.0838117236
    2      C       1.4357127991    -2.7634029620    -0.0163233311
    3      C       0.9382380377    -1.3940442555    -0.0392617784
    4      C      -0.4351869004    -1.1889229080    -0.0209732328
    5      C      -1.0136713146     0.0774309373    -0.0330594133
    6      C      -2.4734890726     0.2131350299     0.0136977643
    7      O      -3.0866241188     1.2659181954     0.0329185908
    8      O      -3.1114469236    -0.9682210899     0.0420119972
    9      C      -4.5271482726    -0.9042861372     0.0917424135
   10      C      -0.1858088916     1.2251148769    -0.0703990307
   11      N      -0.7174915648     2.4629081698    -0.0740215525
   12      C       1.2191964109     1.0461539142    -0.1085951648
   13      C       2.0962565935     2.2189248390    -0.2149037098
   14      C       3.2279896164     2.3912766938     0.4515018606
   15      C       1.7342651663    -0.2389823173    -0.0876792786
   16      F       3.0741722815    -0.3694848084    -0.1635682157
   17      H       2.9132427940    -4.2393118986     0.0941996561
   18      H       3.5364457132    -2.5263677802     0.1586793942
   19      H       0.6446413571    -3.5015449183    -0.0786757501
   20      H      -1.0899990780    -2.0454159427     0.0101379560
   21      H      -4.8765070085    -1.9335908518     0.0972967855
   22      H      -4.9154257357    -0.3715342760    -0.7790821756
   23      H      -4.8536734819    -0.3832931937     0.9945184320
   24      H      -1.7233116168     2.5364295614     0.0003035637
   25      H      -0.1309628477     3.2686113481     0.0372088899
   26      H       1.7625919017     2.9797757244    -0.9117672193
   27      H       3.5915401731     1.6679517986     1.1606551126
   28      H       3.8347492995     3.2693330944     0.3099925252
 ----------------------------------------------------------------

    9    -769.5156377283      6.23e-06  Convergence criterion met
 Total energy in the final basis set =     -769.5156377283

                    Orbital Energies (a.u.)
 --------------------------------------------------------------

 Alpha MOs
 -- Occupied --
-24.7118 -19.1934 -19.1382 -14.3471 -10.3170 -10.2776 -10.2488 -10.2407
-10.1986 -10.1973 -10.1973 -10.1956 -10.1928 -10.1857 -10.1848 -10.1673
 -1.2241  -1.1116  -1.0197  -0.9395  -0.8596  -0.8073  -0.7875  -0.7528
 -0.7218  -0.7172  -0.6485  -0.6292  -0.6021  -0.5759  -0.5673  -0.5466
 -0.5335  -0.5168  -0.4949  -0.4875  -0.4800  -0.4668  -0.4618  -0.4528
 -0.4448  -0.4357  -0.4268  -0.4128  -0.3980  -0.3940  -0.3866  -0.3751
 -0.3611  -0.3567  -0.3359  -0.3298  -0.3053  -0.2939  -0.2791  -0.2667
 -0.2371  -0.1950

          Ground-State Mulliken Net Atomic Charges

     Atom                 Charge (a.u.)
  ----------------------------------------
      1 C                    -0.367914
      2 C                    -0.108910
      3 C                     0.133090
      4 C                    -0.289247
      5 C                     0.035092
      6 C                     0.620808
      7 O                    -0.538181
      8 O                    -0.462071
      9 C                    -0.214627
     10 C                     0.274823
     11 N                    -0.847933
     12 C                     0.039154
     13 C                    -0.149504
     14 C                    -0.318169
     15 C                     0.243933
     16 F                    -0.279471
     17 H                     0.133968
     18 H                     0.153153
     19 H                     0.125387
     20 H                     0.161706
     21 H                     0.164665
     22 H                     0.169042
     23 H                     0.168311
     24 H                     0.383718
     25 H                     0.333026
     26 H                     0.137785
     27 H                     0.155119
     28 H                     0.143247
  ----------------------------------------
  Sum of atomic charges =     0.000000

                    Cartesian Multipole Moments
 -----------------------------------------------------------------
    Charge (ESU x 10^10)
                 0.0000
    Dipole Moment (Debye)
         X      -1.2022      Y       0.7622      Z       0.3257
       Tot       1.4602
    Quadrupole Moments (Debye-Ang)
        XX     -85.2691     XY       8.5748     YY     -81.8901
        XZ       1.0509     YZ      -0.2262     ZZ     -93.7116

 Total job time:  49.27s(wall), 49.12s(cpu)
        *  Thank you very much for using Q-Chem.  Have a nice day.  *
