 Q-Chem 5.2, Q-Chem, Inc., Pleasanton, CA (2019)
 Q-Chem 5.2.1 for Intel X86 EM64T Linux

User input:
--------------------------------------------------------------
$molecule
0 1
C        -3.81635622480000    0.63939086100000    0.09852482120000
C        -2.69398102280000    1.34341942520000    0.03110955960000
C        -1.36627464200000    0.73781496570000   -0.01020523110000
C        -0.22637737900000    1.54162940490000   -0.07520393030000
C         1.02319220250000    0.93761406340000   -0.11345383670000
C         2.27896932390000    1.77069798560000   -0.18944124680000
O         3.43697679950000    1.10641702920000    0.25045484880000
C         1.08722377270000   -0.44671670900000   -0.08733846290000
C        -0.10041513660000   -1.18047531590000   -0.01803956540000
C        -0.14504127360000   -2.63949574150000    0.01803833200000
C         0.89348235290000   -3.46314795340000   -0.03828656860000
N        -1.28879996910000   -0.58866184970000    0.02197176190000
H        -4.78512809040000    1.10782045920000    0.12694234160000
H        -3.78068477580000   -0.43584394070000    0.12628101990000
H        -2.71362661400000    2.42517768290000    0.00209921920000
H        -0.31612708860000    2.61793231830000   -0.09461302370000
H         2.13036282010000    2.70799641720000    0.36856743690000
H         2.47315330530000    2.03118637230000   -1.23576742400000
H         3.30782263700000    0.83034972730000    1.16496721440000
H         2.04626033330000   -0.93786630730000   -0.12746782380000
H        -1.14999883190000   -3.03176707290000    0.09486023830000
H         1.91044529870000   -3.11839278290000   -0.12034386160000
H         0.76136424410000   -4.53116828710000   -0.00698220790000
$end

$rem
BASIS = 6-31G*
GUI = 2
METHOD = B3LYP
PRINT_ORBITALS false
MOLDEN_FORMAT false
--------------------------------------------------------------

             Standard Nuclear Orientation (Angstroms)
    I     Atom           X                Y                Z
 ----------------------------------------------------------------
    1      C       3.8293983103     0.5552467795    -0.0969715009
    2      C       2.7231215797     1.2843792809    -0.0303027578
    3      C       1.3821384001     0.7088004962     0.0114235116
    4      C       0.2605865500     1.5380851981     0.0755841262
    5      C      -1.0022436053     0.9623365323     0.1142519409
    6      C      -2.2389892103     1.8234971932     0.1893632655
    7      O      -3.4115962227     1.1850093469    -0.2500512793
    8      C      -1.0973646837    -0.4202288044     0.0893760015
    9      C       0.0734913514    -1.1805520863     0.0208569434
   10      C       0.0853229656    -2.6402388482    -0.0139033684
   11      C      -0.9714515150    -3.4402949999     0.0430583267
   12      N       1.2748781567    -0.6156288999    -0.0195674637
   13      H       4.8084540717     1.0017627425    -0.1257131509
   14      H       3.7695761258    -0.5189395302    -0.1237635910
   15      H       2.7670684432     2.3654486491    -0.0022640092
   16      H       0.3744980118     2.6121166133     0.0940335920
   17      H      -2.0693130528     2.7567158612    -0.3694737889
   18      H      -2.4273546794     2.0892270521     1.2354350506
   19      H      -3.2886048186     0.9052847124    -1.1643018265
   20      H      -2.0671990881    -0.8896672216     0.1298509138
   21      H       1.0812180624    -3.0550629277    -0.0902711355
   22      H      -1.9804171403    -3.0727005650     0.1247030343
   23      H      -0.8633641073    -4.5110423101     0.0127284586
 ----------------------------------------------------------------

    9    -517.6095037236      2.31e-06  Convergence criterion met
 Total energy in the final basis set =     -517.6095037236

                    Orbital Energies (a.u.)
 --------------------------------------------------------------

 Alpha MOs
 -- Occupied --
-19.1563 -14.3186 -10.2451 -10.2260 -10.2245 -10.2092 -10.1935 -10.1905
-10.1874 -10.1852 -10.1846 -10.1775  -1.0352  -0.9491  -0.8181  -0.8133
 -0.7691  -0.7270  -0.7031  -0.6478  -0.6263  -0.5727  -0.5516  -0.5295
 -0.5018  -0.4847  -0.4660  -0.4617  -0.4528  -0.4296  -0.4168  -0.4103
 -0.4069  -0.3814  -0.3634  -0.3504  -0.3404  -0.3214  -0.2970  -0.2775
 -0.2548  -0.2523  -0.2241

          Ground-State Mulliken Net Atomic Charges

     Atom                 Charge (a.u.)
  ----------------------------------------
      1 C                    -0.331136
      2 C                    -0.109543
      3 C                     0.329220
      4 C                    -0.240958
      5 C                     0.130919
      6 C                    -0.085965
      7 O                    -0.605295
      8 C                    -0.234658
      9 C                     0.316648
     10 C                    -0.093601
     11 C                    -0.346978
     12 N                    -0.576487
     13 H                     0.140843
     14 H                     0.169253
     15 H                     0.123347
     16 H                     0.127355
     17 H                     0.136534
     18 H                     0.173629
     19 H                     0.393847
     20 H                     0.144299
     21 H                     0.143136
     22 H                     0.146286
     23 H                     0.149305
  ----------------------------------------
  Sum of atomic charges =     0.000000

                    Cartesian Multipole Moments
 -----------------------------------------------------------------
    Charge (ESU x 10^10)
                 0.0000
    Dipole Moment (Debye)
         X      -0.3855      Y       1.0220      Z      -0.8286
       Tot       1.3710
    Quadrupole Moments (Debye-Ang)
        XX     -72.7467     XY       3.2900     YY     -62.3193
        XZ       2.9483     YZ      -0.1177     ZZ     -70.7801

 Total job time:  27.62s(wall), 27.52s(cpu)
        *  Thank you very much for using Q-Chem.  Have a nice day.  *
