 Q-Chem 5.2, Q-Chem, Inc., Pleasanton, CA (2019)
 Q-Chem 5.2.1 for Intel X86 EM64T Linux

User input:
--------------------------------------------------------------
$molecule
0 1
C         2.34217751840000   -3.26297105670000    0.09499446960000
C         1.09862288280000   -2.83917133670000   -0.09944780590000
C         0.60107576670000   -1.46970076950000   -0.07491034460000
C        -0.77250252820000   -1.26069248350000   -0.05618362360000
C        -1.35618041050000    0.00434534890000   -0.02977274100000
C        -2.82231315940000    0.17469994650000    0.02829969840000
O        -3.39383432420000    1.21836825500000   -0.20191987140000
O        -3.55785486860000   -0.89391618150000    0.37761885580000
C        -0.51861379710000    1.14885450700000   -0.06596122610000
N        -1.03905453010000    2.38763302230000   -0.03845219710000
C         0.88725709720000    0.96674496030000   -0.09098893370000
C         1.77052035540000    2.13654665470000   -0.17991570300000
C         2.88894307370000    2.30099782330000    0.50994226700000
C         1.40153452940000   -0.31751402570000   -0.08376185600000
F         2.73985759900000   -0.45281578790000   -0.15307817200000
H         2.57266167270000   -4.31419485290000    0.05769106690000
H         3.16780551650000   -2.60619198980000    0.29701963120000
H         0.32405128570000   -3.57535277800000   -0.28269283080000
H        -1.39466270420000   -2.14628131880000   -0.09363861750000
H        -3.01847171300000   -1.65995679160000    0.61191459660000
H        -2.04484095620000    2.47833223660000   -0.09476888860000
H        -0.44154001600000    3.19250663220000   -0.02003341570000
H         1.45734338800000    2.89860540710000   -0.88495123560000
H         3.23188852700000    1.57523512680000    1.22689402760000
H         3.50432127710000    3.17485875080000    0.38183617740000
$end

$rem
BASIS = 6-31G*
GUI = 2
METHOD = B3LYP
PRINT_ORBITALS false
MOLDEN_FORMAT false
--------------------------------------------------------------

             Standard Nuclear Orientation (Angstroms)
    I     Atom           X                Y                Z
 ----------------------------------------------------------------
    1      C       2.9918610768     2.6589595726    -0.0811993425
    2      C       1.6845983564     2.5239127091     0.1102912774
    3      C       0.8934628565     1.3003950723     0.0835692410
    4      C      -0.4920245957     1.4038508065     0.0617996081
    5      C      -1.3437518101     0.3013827219     0.0331116812
    6      C      -2.8107183603     0.4632243289    -0.0281644900
    7      O      -3.6016638905    -0.4262882634     0.1999879735
    8      O      -3.2878886248     1.6693845108    -0.3781245779
    9      C      -0.7834161043    -1.0014545843     0.0700914278
   10      N      -1.5676331460    -2.0924692890     0.0404593687
   11      C       0.6275169244    -1.1383514434     0.0982069556
   12      C       1.2266187597    -2.4760779917     0.1879991094
   13      C       2.2814736792    -2.8862297739    -0.4996593791
   14      C       1.4159743997    -0.0016176721     0.0931281768
   15      F       2.7505046801    -0.1690470829     0.1653519973
   16      H       3.4515019909     3.6320069919    -0.0425352909
   17      H       3.6501572134     1.8342536236    -0.2820495206
   18      H       1.0938634066     3.4145993399     0.2925344046
   19      H      -0.9004733915     2.4061291913     0.0986963137
   20      H      -2.5903418328     2.2954884167    -0.6106525784
   21      H      -2.5683538876    -1.9559736781     0.0945999060
   22      H      -1.1651984018    -3.0105718025     0.0226148946
   23      H       0.7493934379    -3.1490499658     0.8917413715
   24      H       2.7796234256    -2.2552874591    -1.2152860472
   25      H       2.6855669689    -3.8756183437    -0.3709997692
 ----------------------------------------------------------------

    9    -730.1968783359      6.60e-06  Convergence criterion met
 Total energy in the final basis set =     -730.1968783359

                    Orbital Energies (a.u.)
 --------------------------------------------------------------

 Alpha MOs
 -- Occupied --
-24.7202 -19.1964 -19.1360 -14.3533 -10.3237 -10.2867 -10.2576 -10.2166
-10.2080 -10.2078 -10.2050 -10.2042 -10.1962 -10.1916 -10.1773  -1.2328
 -1.1080  -1.0236  -0.9469  -0.8699  -0.8154  -0.7914  -0.7528  -0.7296
 -0.6630  -0.6432  -0.6323  -0.6040  -0.5810  -0.5572  -0.5498  -0.5347
 -0.4945  -0.4870  -0.4758  -0.4702  -0.4559  -0.4523  -0.4465  -0.4406
 -0.4154  -0.4050  -0.3975  -0.3930  -0.3856  -0.3682  -0.3466  -0.3396
 -0.3193  -0.3003  -0.2796  -0.2772  -0.2464  -0.2033

          Ground-State Mulliken Net Atomic Charges

     Atom                 Charge (a.u.)
  ----------------------------------------
      1 C                    -0.360813
      2 C                    -0.116629
      3 C                     0.133834
      4 C                    -0.330619
      5 C                     0.060810
      6 C                     0.576259
      7 O                    -0.495973
      8 O                    -0.573066
      9 C                     0.274300
     10 N                    -0.840545
     11 C                     0.041398
     12 C                    -0.148376
     13 C                    -0.316206
     14 C                     0.243406
     15 F                    -0.276695
     16 H                     0.138370
     17 H                     0.155890
     18 H                     0.123965
     19 H                     0.124641
     20 H                     0.419517
     21 H                     0.388755
     22 H                     0.334967
     23 H                     0.139989
     24 H                     0.156033
     25 H                     0.146788
  ----------------------------------------
  Sum of atomic charges =     0.000000

                    Cartesian Multipole Moments
 -----------------------------------------------------------------
    Charge (ESU x 10^10)
                 0.0000
    Dipole Moment (Debye)
         X       2.0496      Y      -0.3897      Z      -0.6191
       Tot       2.1762
    Quadrupole Moments (Debye-Ang)
        XX    -101.5215     XY      -1.4523     YY     -68.5267
        XZ      -0.4265     YZ      -1.2598     ZZ     -87.1679

 Total job time:  43.48s(wall), 42.76s(cpu)
        *  Thank you very much for using Q-Chem.  Have a nice day.  *
