 Q-Chem 5.2, Q-Chem, Inc., Pleasanton, CA (2019)
 Q-Chem 5.2.1 for Intel X86 EM64T Linux

User input:
--------------------------------------------------------------
$molecule
0 1
C        -3.93523834590000    2.84150029230000    0.41776927790000
C        -3.74042616050000    1.53479192530000    0.55469045240000
C        -2.57112470250000    0.75796558510000    0.16475061990000
C        -2.60231070250000   -0.62839078240000    0.33105327490000
C        -1.55281531470000   -1.46944572250000   -0.00565615740000
C        -1.61130919650000   -2.91442488200000    0.18522723800000
C        -2.70482987530000   -3.63606111500000    0.39810875620000
C        -0.37618954800000   -0.89624437010000   -0.53636129720000
O         0.62706266430000   -1.75160531810000   -0.85918351260000
C         1.82718763120000   -1.23216041490000   -1.39119665770000
C         2.61636800720000   -0.38248835260000   -0.42357794510000
C         2.52136503330000   -0.60118870950000    0.94378432400000
C         3.24962262280000    0.17584323020000    1.82681991710000
C         4.08527721460000    1.17115924260000    1.35069202150000
C         4.18980712160000    1.38842609110000   -0.01293128190000
C         3.45604405620000    0.61768480470000   -0.89652420540000
C        -0.31233162340000    0.47911626720000   -0.70875682160000
C        -1.38938595270000    1.27399555250000   -0.36517651350000
F        -1.23289388110000    2.60146978870000   -0.56265751480000
H        -4.85449767580000    3.29596777150000    0.74734952810000
H        -3.21082026600000    3.50528834550000   -0.01714050370000
H        -4.52570277460000    0.93508516540000    1.00005045850000
H        -3.49313169110000   -1.06415656560000    0.75649248640000
H        -0.65258740960000   -3.41005059520000    0.12018771640000
H        -3.69078316170000   -3.20562403740000    0.43973218010000
H        -2.65157333500000   -4.70304350620000    0.52922797150000
H         1.62758922440000   -0.67400341980000   -2.31622824920000
H         2.40945411790000   -2.12385749160000   -1.65250852640000
H         1.86926759580000   -1.37874246250000    1.31401523300000
H         3.16416571340000    0.00200991460000    2.88918442160000
H         4.65310968350000    1.77796629240000    2.04002126070000
H         4.83931875500000    2.16456546460000   -0.38979296330000
H         3.53344135160000    0.79290610370000   -1.96063473480000
H         0.56724706910000    0.96697280330000   -1.09567675620000
$end

$rem
BASIS = 6-31G*
GUI = 2
METHOD = B3LYP
PRINT_ORBITALS false
MOLDEN_FORMAT false
--------------------------------------------------------------

             Standard Nuclear Orientation (Angstroms)
    I     Atom           X                Y                Z
 ----------------------------------------------------------------
    1      C       3.8630839289    -2.9773240209     0.2870037358
    2      C       3.7013485049    -1.6731956313     0.4800756086
    3      C       2.5530898653    -0.8506136117     0.1228095270
    4      C       2.6192447233     0.5260157600     0.3489250394
    5      C       1.5922735974     1.4073835775     0.0477468531
    6      C       1.6871680052     2.8408020986     0.3009842339
    7      C       2.7982610692     3.5243786420     0.5460560214
    8      C       0.4025841203     0.8879061404    -0.5085247272
    9      O      -0.5778247191     1.7817799410    -0.7951598123
   10      C      -1.7896323601     1.3166484578    -1.3504398089
   11      C      -2.6023387425     0.4464315210    -0.4213192187
   12      C      -2.5047910609     0.6033715530     0.9543221817
   13      C      -3.2545571498    -0.1922011847     1.8021455369
   14      C      -4.1142682643    -1.1443354431     1.2825230895
   15      C      -4.2213114161    -1.2997617012    -0.0893312543
   16      C      -3.4662008058    -0.5105883661    -0.9379773728
   17      C       0.3040617285    -0.4766429487    -0.7402876573
   18      C       1.3597449054    -1.3128946023    -0.4302187356
   19      F       1.1698945521    -2.6261660050    -0.6850744368
   20      H       4.7697329805    -3.4689541725     0.5976302607
   21      H       3.1229344854    -3.6029720993    -0.1769854187
   22      H       4.5006799346    -1.1135552834     0.9518012069
   23      H       3.5199501436     0.9200838599     0.7937760850
   24      H       0.7415383540     3.3631220447     0.2563872790
   25      H       3.7728265997     3.0674803352     0.5701066774
   26      H       2.7719360704     4.5857148733     0.7231219110
   27      H      -1.6022996615     0.7940439551    -2.2985184946
   28      H      -2.3484019053     2.2333934426    -1.5735923560
   29      H      -1.8338963312     1.3472843015     1.3585324204
   30      H      -3.1670271401    -0.0666548463     2.8711244233
   31      H      -4.6988970729    -1.7656329844     1.9443552659
   32      H      -4.8895705833    -2.0420415780    -0.5001020979
   33      H      -3.5457053954    -0.6376515731    -2.0087518707
   34      H      -0.5868175883    -0.9246871996    -1.1488951758
 ----------------------------------------------------------------

    9    -831.8507392468      3.09e-06  Convergence criterion met
 Total energy in the final basis set =     -831.8507392468

                    Orbital Energies (a.u.)
 --------------------------------------------------------------

 Alpha MOs
 -- Occupied --
-24.7063 -19.1902 -10.2705 -10.2554 -10.2547 -10.2008 -10.1953 -10.1938
-10.1928 -10.1923 -10.1916 -10.1915 -10.1904 -10.1896 -10.1893 -10.1875
-10.1839 -10.1740 -10.1707  -1.2172  -1.0828  -0.8714  -0.8648  -0.8045
 -0.7840  -0.7782  -0.7530  -0.7342  -0.7272  -0.6910  -0.6368  -0.6241
 -0.6128  -0.5908  -0.5888  -0.5514  -0.5433  -0.5272  -0.5176  -0.4901
 -0.4776  -0.4735  -0.4601  -0.4592  -0.4511  -0.4456  -0.4400  -0.4332
 -0.4270  -0.4260  -0.4024  -0.3944  -0.3909  -0.3759  -0.3674  -0.3623
 -0.3537  -0.3483  -0.3370  -0.3345  -0.3262  -0.3001  -0.2740  -0.2573
 -0.2511  -0.2293  -0.2025

          Ground-State Mulliken Net Atomic Charges

     Atom                 Charge (a.u.)
  ----------------------------------------
      1 C                    -0.364021
      2 C                    -0.108339
      3 C                     0.132547
      4 C                    -0.303319
      5 C                     0.119131
      6 C                    -0.102991
      7 C                    -0.351455
      8 C                     0.328015
      9 O                    -0.523785
     10 C                    -0.110551
     11 C                     0.106479
     12 C                    -0.158208
     13 C                    -0.126358
     14 C                    -0.125078
     15 C                    -0.126273
     16 C                    -0.177691
     17 C                    -0.258692
     18 C                     0.311075
     19 F                    -0.292063
     20 H                     0.136282
     21 H                     0.157283
     22 H                     0.126363
     23 H                     0.135637
     24 H                     0.145150
     25 H                     0.138462
     26 H                     0.141398
     27 H                     0.152031
     28 H                     0.175123
     29 H                     0.144591
     30 H                     0.134064
     31 H                     0.131597
     32 H                     0.132423
     33 H                     0.125445
     34 H                     0.155730
  ----------------------------------------
  Sum of atomic charges =     0.000000

                    Cartesian Multipole Moments
 -----------------------------------------------------------------
    Charge (ESU x 10^10)
                 0.0000
    Dipole Moment (Debye)
         X      -1.7485      Y       0.4666      Z      -0.1370
       Tot       1.8149
    Quadrupole Moments (Debye-Ang)
        XX    -100.3834     XY       3.3133     YY    -109.3280
        XZ       4.1859     YZ       0.2810     ZZ    -105.8659

 Total job time:  72.94s(wall), 72.74s(cpu)
        *  Thank you very much for using Q-Chem.  Have a nice day.  *
