 Q-Chem 5.2, Q-Chem, Inc., Pleasanton, CA (2019)
 Q-Chem 5.2.1 for Intel X86 EM64T Linux

User input:
--------------------------------------------------------------
$molecule
0 1
C         4.32798501240000   -1.20495779940000    0.03505368990000
C         3.08541814250000   -1.67113396060000   -0.00255473680000
C         1.85410000280000   -0.88929263950000   -0.01758696610000
C         1.84706018250000    0.50427817630000   -0.07000219150000
C         0.67680608120000    1.26982030200000   -0.08567971570000
C         0.69677388770000    2.72810208450000   -0.15173260030000
C         1.70331285790000    3.50418386930000    0.22840522140000
C        -0.52332068310000    0.56485666490000   -0.05308137190000
C        -0.54098693690000   -0.83870495160000   -0.00202331050000
C         0.63065189770000   -1.56896698690000    0.01539166600000
C        -1.93914195390000   -1.27858357780000    0.02860047770000
O        -2.39744670990000   -2.39025570710000    0.06748638080000
C        -2.75357225940000    0.04342481640000    0.00066118130000
O        -3.94725631780000    0.19013125870000    0.01770050260000
N        -1.82366578960000    1.04763846330000   -0.04850171710000
H         5.17186346240000   -1.87260218580000    0.04589919970000
H         4.56209382990000   -0.15456107930000    0.05873029620000
H         2.93022353520000   -2.74252130950000   -0.01782777340000
H         2.78844356930000    1.02648899410000   -0.12333890150000
H        -0.20342306500000    3.18717771570000   -0.54089850120000
H         2.61169231970000    3.10777234680000    0.64844575460000
H         1.64668700280000    4.57561147650000    0.14674794780000
H         0.59219910070000   -2.64692113220000    0.05272044690000
H        -2.06800029950000    2.02576429990000   -0.06032479030000
$end

$rem
BASIS = 6-31G*
GUI = 2
METHOD = B3LYP
PRINT_ORBITALS false
MOLDEN_FORMAT false
--------------------------------------------------------------

             Standard Nuclear Orientation (Angstroms)
    I     Atom           X                Y                Z
 ----------------------------------------------------------------
    1      C       4.1685245937     1.4662281255    -0.0162900560
    2      C       2.9021755020     1.8636596928     0.0171039615
    3      C       1.7154407305     1.0155919636     0.0264788830
    4      C       1.7844768925    -0.3763481188     0.0772070698
    5      C       0.6578198187    -1.2048005770     0.0874810701
    6      C       0.7573128595    -2.6598958372     0.1518734039
    7      C       1.8062393559    -3.3792045683    -0.2253222393
    8      C      -0.5789561657    -0.5665189863     0.0511161498
    9      C      -0.6732130607     0.8340431068     0.0016621862
   10      C       0.4567639020     1.6273465711    -0.0103859523
   11      C      -2.0932198620     1.1967982729    -0.0338039628
   12      O      -2.6115240907     2.2817797878    -0.0731247529
   13      C      -2.8341825823    -0.1678327139    -0.0105652438
   14      O      -4.0179767244    -0.3796135759    -0.0323607871
   15      N      -1.8509060554    -1.1197252579     0.0409705515
   16      H       4.9746366452     2.1790636301    -0.0231013753
   17      H       4.4598528504     0.4302497207    -0.0403188158
   18      H       2.6885255915     2.9249271879     0.0330571089
   19      H       2.7528198364    -0.8463382931     0.1335347083
   20      H      -0.1178720324    -3.1680863457     0.5370342785
   21      H       2.6931400309    -2.9330932767    -0.6414007168
   22      H       1.8080247628    -4.4522386641    -0.1451589253
   23      H       0.3595188333     2.7016327089    -0.0465782940
   24      H      -2.0413895139    -2.1097711445     0.0506908704
 ----------------------------------------------------------------

    9    -667.8576290898      7.94e-06  Convergence criterion met
 Total energy in the final basis set =     -667.8576290898

                    Orbital Energies (a.u.)
 --------------------------------------------------------------

 Alpha MOs
 -- Occupied --
-19.1634 -19.1485 -14.3961 -10.3070 -10.2899 -10.2607 -10.2233 -10.2170
-10.2166 -10.2158 -10.2132 -10.2080 -10.2025 -10.2021 -10.1903  -1.0777
 -1.0540  -0.9891  -0.8836  -0.8281  -0.8063  -0.7642  -0.7443  -0.7190
 -0.6499  -0.6425  -0.6012  -0.5760  -0.5620  -0.5586  -0.5058  -0.4973
 -0.4880  -0.4759  -0.4701  -0.4535  -0.4471  -0.4425  -0.4287  -0.4096
 -0.4015  -0.3952  -0.3849  -0.3821  -0.3596  -0.3481  -0.3243  -0.3121
 -0.2867  -0.2565  -0.2482  -0.2225

          Ground-State Mulliken Net Atomic Charges

     Atom                 Charge (a.u.)
  ----------------------------------------
      1 C                    -0.355602
      2 C                    -0.110690
      3 C                     0.183575
      4 C                    -0.269144
      5 C                     0.183615
      6 C                    -0.120527
      7 C                    -0.340052
      8 C                     0.241940
      9 C                     0.073642
     10 C                    -0.254040
     11 C                     0.320489
     12 O                    -0.425733
     13 C                     0.578200
     14 O                    -0.452156
     15 N                    -0.754478
     16 H                     0.150290
     17 H                     0.141733
     18 H                     0.134723
     19 H                     0.139468
     20 H                     0.126298
     21 H                     0.151552
     22 H                     0.154430
     23 H                     0.161592
     24 H                     0.340874
  ----------------------------------------
  Sum of atomic charges =     0.000000

                    Cartesian Multipole Moments
 -----------------------------------------------------------------
    Charge (ESU x 10^10)
                 0.0000
    Dipole Moment (Debye)
         X       4.9166      Y      -3.0996      Z       0.1301
       Tot       5.8136
    Quadrupole Moments (Debye-Ang)
        XX     -99.1831     XY       7.1337     YY     -77.7867
        XZ      -1.3504     YZ      -0.0823     ZZ     -86.9773

 Total job time:  40.83s(wall), 40.70s(cpu)
        *  Thank you very much for using Q-Chem.  Have a nice day.  *
