 Q-Chem 5.2, Q-Chem, Inc., Pleasanton, CA (2019)
 Q-Chem 5.2.1 for Intel X86 EM64T Linux

User input:
--------------------------------------------------------------
$molecule
0 1
C        -1.66514541750000    4.99454350580000   -4.32962433790000
C        -0.85570005880000    4.06228427320000   -3.84290471470000
C        -0.94748172740000    3.41925778910000   -2.53588225710000
C        -1.86529143870000    3.81270541050000   -1.56350615380000
C        -1.92090089890000    3.17404838240000   -0.33116128700000
C        -2.86796260670000    3.55597713140000    0.71183333220000
C        -3.88244674120000    4.40341663590000    0.59310587480000
C        -1.03593019650000    2.12535455070000   -0.06374469470000
C        -0.11660934170000    1.72085267340000   -1.01998941290000
O         0.78657838550000    0.71220347160000   -0.85921789850000
C         0.80908403020000    0.00523612360000    0.36262565880000
C         1.90945619910000   -1.04583084690000    0.25310394890000
C         2.18281840160000   -1.77332249970000    1.56921177490000
C         0.99025640470000   -2.54996700510000    2.13834950120000
C         0.40095248420000   -3.61454084280000    1.21029130810000
C         1.35684220040000   -4.77380376930000    0.88857130560000
C         1.64057631310000   -5.57551564740000    2.14400428300000
O         0.93181733130000   -6.45091994560000    2.54598765290000
O         2.74912580400000   -5.22558100310000    2.82427562960000
C        -0.07758269300000    2.37232628010000   -2.25038351820000
H        -1.51522105730000    5.40741799850000   -5.31250872050000
H        -2.50632431530000    5.38278526330000   -3.78165376480000
H        -0.03499953460000    3.71073389650000   -4.45625638650000
H        -2.53156075870000    4.63419489630000   -1.76449413280000
H        -2.70584064130000    3.06954654210000    1.66656014240000
H        -4.11440825130000    4.91075839850000   -0.32726088960000
H        -4.53159620750000    4.61856251770000    1.42453887460000
H        -1.08662016890000    1.63925725920000    0.89864380050000
H        -0.16593116210000   -0.46804562830000    0.53960012120000
H         1.02680912420000    0.68930307700000    1.19567497380000
H         2.82127741420000   -0.53686805790000   -0.06574971150000
H         1.64252884680000   -1.75365527910000   -0.53216507660000
H         2.49481399650000   -1.04056675040000    2.31733532450000
H         3.03052700690000   -2.44440668660000    1.40930988690000
H         0.19751544900000   -1.84133549190000    2.38394473670000
H         1.29419177270000   -3.01817309280000    3.07772971560000
H         0.08553603800000   -3.15315137310000    0.27379795250000
H        -0.48728535910000   -4.03469689550000    1.68635182380000
H         2.27951009740000   -4.40107153350000    0.43990051970000
H         0.86570582560000   -5.43841764330000    0.17669142700000
H         3.22297641220000   -4.49332921930000    2.40891155140000
H         0.64746873590000    2.04213019490000   -2.97837806620000
$end

$rem
BASIS = 6-31G*
GUI = 2
METHOD = B3LYP
PRINT_ORBITALS false
MOLDEN_FORMAT false
--------------------------------------------------------------

             Standard Nuclear Orientation (Angstroms)
    I     Atom           X                Y                Z
 ----------------------------------------------------------------
    1      C       6.5177206587     1.7994207552     0.8100004654
    2      C       5.2540652603     2.0253827292     0.4733682072
    3      C       4.2268902279     1.0233637476     0.2067522813
    4      C       4.4990085503    -0.3427799892     0.1588576889
    5      C       3.4922551911    -1.2648884285    -0.0976823321
    6      C       3.7370489945    -2.7027498369    -0.1548118992
    7      C       4.8551035466    -3.3330042325     0.1830658854
    8      C       2.1885073861    -0.8106402402    -0.3175545111
    9      C       1.9001403032     0.5451085663    -0.2732130746
   10      O       0.6659087489     1.0890945797    -0.4725129753
   11      C      -0.4219065823     0.2309781799    -0.7436311477
   12      C      -1.6546959795     1.1116339351    -0.9231622993
   13      C      -2.8825534696     0.3404144631    -1.4065848044
   14      C      -3.3603666843    -0.7703937282    -0.4647258714
   15      C      -3.7082389384    -0.3182203395     0.9552785996
   16      C      -4.9015822944     0.6462102546     1.0384934195
   17      C      -6.1728615510    -0.0642675067     0.6160844407
   18      O      -6.8355967295    -0.7323167950     1.3541595323
   19      O      -6.5174409261     0.0722690631    -0.6788009416
   20      C       2.9227693657     1.4540154089    -0.0125816378
   21      H       7.2020273160     2.6108195721     0.9898913459
   22      H       6.9243123130     0.8094200664     0.9247489395
   23      H       4.9113018815     3.0493072310     0.3871755634
   24      H       5.5077644221    -0.6882242808     0.3079743626
   25      H       2.8940447984    -3.2890554851    -0.5012092784
   26      H       5.7265134459    -2.8191714790     0.5503498029
   27      H       4.9376583157    -4.4038265319     0.1089853457
   28      H       1.4156018154    -1.5365776567    -0.5192560527
   29      H      -0.5620657569    -0.4708406474     0.0893009874
   30      H      -0.2354223749    -0.3433293084    -1.6627163036
   31      H      -1.4071955201     1.8796722108    -1.6586821395
   32      H      -1.8632620709     1.6205353501     0.0183432057
   33      H      -2.6536254509    -0.1140011420    -2.3735695535
   34      H      -3.6843021987     1.0633000725    -1.5773707824
   35      H      -2.5786486279    -1.5286202645    -0.3945598967
   36      H      -4.2303203476    -1.2575904760    -0.9117703753
   37      H      -2.8413117980     0.1602168410     1.4123593144
   38      H      -3.9490172604    -1.2016128786     1.5500681516
   39      H      -4.7238017139     1.5348297873     0.4299704264
   40      H      -5.0250519269     0.9533236116     2.0777894012
   41      H      -5.8915889222     0.6173633697    -1.1732054901
   42      H       2.6755970050     2.5041848259     0.0148976408
 ----------------------------------------------------------------

    9    -886.6903966447      4.03e-06  Convergence criterion met
 Total energy in the final basis set =     -886.6903966447

                    Orbital Energies (a.u.)
 --------------------------------------------------------------

 Alpha MOs
 -- Occupied --
-19.1978 -19.1808 -19.1312 -10.3169 -10.2495 -10.2483 -10.2080 -10.2039
-10.2026 -10.1983 -10.1975 -10.1975 -10.1971 -10.1921 -10.1906 -10.1873
-10.1834 -10.1816 -10.1807 -10.1803  -1.1058  -1.0720  -1.0219  -0.8677
 -0.8367  -0.8060  -0.8004  -0.7770  -0.7450  -0.7292  -0.7186  -0.6847
 -0.6434  -0.6324  -0.6268  -0.6147  -0.5754  -0.5709  -0.5547  -0.5227
 -0.5178  -0.5054  -0.5010  -0.4886  -0.4863  -0.4715  -0.4707  -0.4501
 -0.4463  -0.4431  -0.4265  -0.4250  -0.4204  -0.4105  -0.4074  -0.3952
 -0.3898  -0.3799  -0.3733  -0.3714  -0.3677  -0.3586  -0.3546  -0.3437
 -0.3401  -0.3373  -0.3312  -0.3248  -0.3175  -0.3145  -0.2693  -0.2640
 -0.2233  -0.2160

          Ground-State Mulliken Net Atomic Charges

     Atom                 Charge (a.u.)
  ----------------------------------------
      1 C                    -0.351467
      2 C                    -0.113343
      3 C                     0.188515
      4 C                    -0.255516
      5 C                     0.186031
      6 C                    -0.115838
      7 C                    -0.349161
      8 C                    -0.278775
      9 C                     0.394528
     10 O                    -0.528308
     11 C                    -0.027303
     12 C                    -0.281628
     13 C                    -0.274221
     14 C                    -0.289687
     15 C                    -0.272711
     16 C                    -0.368178
     17 C                     0.585386
     18 O                    -0.436753
     19 O                    -0.561767
     20 C                    -0.261309
     21 H                     0.144744
     22 H                     0.143573
     23 H                     0.128074
     24 H                     0.122608
     25 H                     0.124210
     26 H                     0.144429
     27 H                     0.144480
     28 H                     0.129295
     29 H                     0.141619
     30 H                     0.137029
     31 H                     0.155632
     32 H                     0.152197
     33 H                     0.145831
     34 H                     0.113599
     35 H                     0.145836
     36 H                     0.152160
     37 H                     0.150327
     38 H                     0.167723
     39 H                     0.139726
     40 H                     0.181101
     41 H                     0.414414
     42 H                     0.132899
  ----------------------------------------
  Sum of atomic charges =     0.000000

                    Cartesian Multipole Moments
 -----------------------------------------------------------------
    Charge (ESU x 10^10)
                 0.0000
    Dipole Moment (Debye)
         X       2.4960      Y       1.3906      Z      -1.6835
       Tot       3.3163
    Quadrupole Moments (Debye-Ang)
        XX    -154.1375     XY     -14.8310     YY    -114.0237
        XZ      13.0237     YZ       1.8491     ZZ    -122.5054

 Total job time:  76.34s(wall), 75.38s(cpu)
        *  Thank you very much for using Q-Chem.  Have a nice day.  *
