 Q-Chem 5.2, Q-Chem, Inc., Pleasanton, CA (2019)
 Q-Chem 5.2.1 for Intel X86 EM64T Linux

User input:
--------------------------------------------------------------
$molecule
0 1
C         2.24186763670000    2.85106313290000    0.51010999270000
C         1.22873257010000    2.44878688310000   -0.24443273690000
C         0.59377800020000    1.13726165680000   -0.14929216510000
C        -0.78463241740000    1.03753751190000   -0.30676646280000
C        -1.46647786220000   -0.16188955070000   -0.13729009350000
C        -2.93947678600000   -0.15686632210000   -0.34694817920000
O        -3.60747165300000   -1.07607661390000   -0.75148122310000
O        -3.46943897690000    1.03986287730000   -0.04627935730000
C        -4.87105205940000    1.16008359980000   -0.23416034060000
C        -0.76189232910000   -1.32523877460000    0.22577334270000
C        -1.43425766650000   -2.59798094860000    0.46969138790000
C        -0.98325295440000   -3.53648038270000    1.29331360820000
C         0.62348691990000   -1.22658979280000    0.35085901070000
C         1.30095379770000   -0.03586870580000    0.14787981800000
C         2.78998153720000   -0.08302639590000    0.20173325920000
O         3.42874027070000   -0.59120707820000    1.08759228960000
O         3.33052626050000    0.44471300120000   -0.90392159030000
C         4.74832832870000    0.45161026920000   -0.97675779970000
H         2.65443335670000    3.84147908320000    0.42070998400000
H         2.68581134970000    2.21367653400000    1.25744809750000
H         0.77162554800000    3.13394615600000   -0.94683121800000
H        -1.34774643550000    1.92342016690000   -0.55908522490000
H        -5.13489919430000    2.16586226550000    0.08238389450000
H        -5.39960487050000    0.41697807970000    0.36660164470000
H        -5.12801816430000    1.00694338080000   -1.28457471220000
H        -2.36960428610000   -2.74091705800000   -0.04974207670000
H        -0.07795065290000   -3.42099886610000    1.86621058950000
H        -1.52315641120000   -4.45614588890000    1.43940010060000
H         1.19948108480000   -2.10958883590000    0.58155796210000
H         5.00375513400000    0.56469825020000   -2.02736467490000
H         5.15319935890000   -0.48034205010000   -0.57702982280000
H         5.14570072520000    1.28933961210000   -0.39935305840000
$end

$rem
BASIS = 6-31G*
GUI = 2
METHOD = B3LYP
PRINT_ORBITALS false
MOLDEN_FORMAT false
--------------------------------------------------------------

             Standard Nuclear Orientation (Angstroms)
    I     Atom           X                Y                Z
 ----------------------------------------------------------------
    1      C       2.5967093859     2.3584344494     1.0042233639
    2      C       1.5400075075     2.2522702555     0.2106782302
    3      C       0.7339733513     1.0439211141     0.0606157590
    4      C      -0.6450128508     1.1609463111    -0.0788851245
    5      C      -1.4825450340     0.0528413230    -0.1327730290
    6      C      -2.9410490243     0.2944911701    -0.3003410359
    7      O      -3.7260466721    -0.4290187190    -0.8616999405
    8      O      -3.3055048068     1.4667502409     0.2440881097
    9      C      -4.6777941646     1.8064651354     0.1188394454
   10      C      -0.9417848631    -1.2423434484    -0.0245505986
   11      C      -1.7799379444    -2.4377197169    -0.0202158339
   12      C      -1.4610027515    -3.5727556641     0.5901232041
   13      C       0.4440214894    -1.3548832161     0.0828238099
   14      C       1.2761038965    -0.2479779071     0.1022695056
   15      C       2.7451012733    -0.5016241961     0.1084271744
   16      O       3.3079379986    -1.2560860355     0.8600977810
   17      O       3.3538547189     0.1594873456    -0.8843068722
   18      C       4.7597919839    -0.0070063427    -0.9898324556
   19      H       3.1391108187     3.2832928700     1.1020199742
   20      H       2.9493557656     1.5319022445     1.5994938778
   21      H       1.1806711240     3.1179789617    -0.3307822804
   22      H      -1.0831771368     2.1459281901    -0.1369625729
   23      H      -4.8043163859     2.7549232538     0.6344222351
   24      H      -5.3027491795     1.0352282238     0.5739369148
   25      H      -4.9511121306     1.9010369237    -0.9343496754
   26      H      -2.7250548012    -2.3492045301    -0.5340585558
   27      H      -0.5494536178    -3.6946012378     1.1516844403
   28      H      -2.1201535073    -4.4233514623     0.5650489457
   29      H       0.8953768264    -2.3344635872     0.1199620725
   30      H       5.0300623486     0.2782697796    -2.0034290295
   31      H       5.0346777580    -1.0451358335    -0.7924417175
   32      H       5.2653386782     0.6387779441    -0.2683917418
 ----------------------------------------------------------------

    9    -842.7840555355      5.94e-06  Convergence criterion met
 Total energy in the final basis set =     -842.7840555355

                    Orbital Energies (a.u.)
 --------------------------------------------------------------

 Alpha MOs
 -- Occupied --
-19.1976 -19.1923 -19.1402 -19.1376 -10.3202 -10.3171 -10.2429 -10.2392
-10.2126 -10.2120 -10.2119 -10.2106 -10.2021 -10.2004 -10.1977 -10.1872
-10.1855 -10.1817  -1.1153  -1.1107  -1.0232  -1.0208  -0.8858  -0.8217
 -0.7931  -0.7751  -0.7447  -0.7292  -0.7192  -0.6547  -0.6379  -0.5978
 -0.5856  -0.5677  -0.5596  -0.5241  -0.5212  -0.4999  -0.4885  -0.4821
 -0.4743  -0.4723  -0.4691  -0.4511  -0.4447  -0.4333  -0.4278  -0.4207
 -0.4104  -0.3998  -0.3952  -0.3815  -0.3733  -0.3632  -0.3617  -0.3542
 -0.3454  -0.3175  -0.3070  -0.3014  -0.2843  -0.2780  -0.2704  -0.2590
 -0.2244

          Ground-State Mulliken Net Atomic Charges

     Atom                 Charge (a.u.)
  ----------------------------------------
      1 C                    -0.348174
      2 C                    -0.115057
      3 C                     0.147431
      4 C                    -0.245339
      5 C                     0.035822
      6 C                     0.563113
      7 O                    -0.482524
      8 O                    -0.445675
      9 C                    -0.219326
     10 C                     0.121190
     11 C                    -0.135880
     12 C                    -0.340508
     13 C                    -0.243584
     14 C                     0.071380
     15 C                     0.499174
     16 O                    -0.478055
     17 O                    -0.420261
     18 C                    -0.224987
     19 H                     0.147707
     20 H                     0.163855
     21 H                     0.138423
     22 H                     0.155455
     23 H                     0.166379
     24 H                     0.172140
     25 H                     0.169423
     26 H                     0.184910
     27 H                     0.150069
     28 H                     0.148906
     29 H                     0.157203
     30 H                     0.166723
     31 H                     0.178702
     32 H                     0.161367
  ----------------------------------------
  Sum of atomic charges =     0.000000

                    Cartesian Multipole Moments
 -----------------------------------------------------------------
    Charge (ESU x 10^10)
                 0.0000
    Dipole Moment (Debye)
         X       0.2613      Y       2.5692      Z      -0.5022
       Tot       2.6308
    Quadrupole Moments (Debye-Ang)
        XX     -91.3204     XY      -1.7127     YY     -95.3286
        XZ      -8.3993     YZ       0.0548     ZZ    -106.6585

 Total job time:  63.66s(wall), 63.48s(cpu)
        *  Thank you very much for using Q-Chem.  Have a nice day.  *
