 Q-Chem 5.2, Q-Chem, Inc., Pleasanton, CA (2019)
 Q-Chem 5.2.1 for Intel X86 EM64T Linux

User input:
--------------------------------------------------------------
$molecule
0 1
C        -4.27606760500000   -1.63842148270000    0.47441833110000
C        -3.68845608030000   -0.59694879030000   -0.09880716080000
C        -2.25305975740000   -0.31665679550000   -0.04138667190000
C        -1.33540211120000   -1.36131749220000   -0.03345736780000
C         0.03091990690000   -1.13924417390000   -0.02329372550000
C         0.48541731290000    0.16722210830000   -0.02367528680000
O         1.84711549000000    0.53670652840000   -0.01437831990000
C         2.78519180310000   -0.37935919450000    0.05567483320000
F         2.72146142990000   -1.16199585090000    1.14948295760000
F         2.81551271170000   -1.22978490640000   -0.98845799230000
F         3.97214019890000    0.21994992320000    0.08738678220000
C        -0.40232943320000    1.22902477660000   -0.03128935750000
C        -1.77415223700000    1.00739739490000   -0.04066109860000
C        -2.69699007270000    2.14300755940000   -0.00200020350000
C        -2.46978452610000    3.31679133660000   -0.57532237600000
H        -5.33670088770000   -1.80288654610000    0.39295571500000
H        -3.72689154160000   -2.35442625610000    1.06264957900000
H        -4.28356560120000    0.11427284000000   -0.65608705090000
H        -1.69518787800000   -2.37807505460000   -0.05822846140000
H         0.70447181110000   -1.98077010910000   -0.02002719600000
H        -0.00716153610000    2.23107693730000   -0.00634168440000
H        -3.61996498170000    1.97842015220000    0.53769302030000
H        -1.57820554270000    3.51172475630000   -1.14744306020000
H        -3.17988345000000    4.12310705320000   -0.51001503560000
$end

$rem
BASIS = 6-31G*
GUI = 2
METHOD = B3LYP
PRINT_ORBITALS false
MOLDEN_FORMAT false
--------------------------------------------------------------

             Standard Nuclear Orientation (Angstroms)
    I     Atom           X                Y                Z
 ----------------------------------------------------------------
    1      C       3.8373767197    -2.2974507859    -0.2429059319
    2      C       3.4151783806    -1.1190052272     0.1947637670
    3      C       2.0357328953    -0.6402629826     0.0939702408
    4      C       0.9749730886    -1.5320705868     0.2077341656
    5      C      -0.3441320833    -1.1148510228     0.1614189817
    6      C      -0.6023996340     0.2343535244    -0.0009606545
    7      O      -1.8953368020     0.7957045052    -0.0644086786
    8      C      -2.9581739360     0.0255523971    -0.0281598287
    9      F      -3.0222205689    -0.8854145201    -1.0176219118
   10      F      -3.1007655860    -0.6775126349     1.1118944631
   11      F      -4.0448605629     0.7841361741    -0.1407936995
   12      C       0.4312800053     1.1473383382    -0.1173320371
   13      C       1.7558825663     0.7296529159    -0.0718207813
   14      C       2.8345515078     1.7042997896    -0.2429101370
   15      C       2.7882254710     2.9597606979     0.1810719797
   16      H       4.8633573234    -2.6045776695    -0.1349024438
   17      H       3.1825993557    -2.9914478827    -0.7428137419
   18      H       4.1143373217    -0.4402161169     0.6648430624
   19      H       1.1822633297    -2.5799240681     0.3590258820
   20      H      -1.1336363111    -1.8425001995     0.2565950677
   21      H       0.1868360846     2.1859261064    -0.2672360175
   22      H       3.7172558473     1.3415214638    -0.7522876086
   23      H       1.9413902405     3.3516748483     0.7191310752
   24      H       3.6079417971     3.6391239576     0.0223859017
 ----------------------------------------------------------------

    9    -799.2953375567      3.00e-06  Convergence criterion met
 Total energy in the final basis set =     -799.2953375567

                    Orbital Energies (a.u.)
 --------------------------------------------------------------

 Alpha MOs
 -- Occupied --
-24.7292 -24.7274 -24.7272 -19.2238 -10.4816 -10.2712 -10.2103 -10.2045
-10.2032 -10.2012 -10.2008 -10.1997 -10.1977 -10.1910 -10.1884  -1.3260
 -1.2256  -1.2206  -1.1211  -0.8852  -0.8147  -0.8026  -0.7595  -0.7392
 -0.6977  -0.6499  -0.6491  -0.6064  -0.6016  -0.5993  -0.5758  -0.5491
 -0.5175  -0.4941  -0.4763  -0.4702  -0.4644  -0.4606  -0.4525  -0.4431
 -0.4415  -0.4343  -0.4216  -0.4072  -0.4045  -0.4011  -0.3966  -0.3785
 -0.3681  -0.3599  -0.3459  -0.3038  -0.2949  -0.2488  -0.2288

          Ground-State Mulliken Net Atomic Charges

     Atom                 Charge (a.u.)
  ----------------------------------------
      1 C                    -0.337275
      2 C                    -0.134231
      3 C                     0.110018
      4 C                    -0.205325
      5 C                    -0.160859
      6 C                     0.346350
      7 O                    -0.518978
      8 C                     0.971074
      9 F                    -0.276104
     10 F                    -0.276654
     11 F                    -0.253263
     12 C                    -0.240091
     13 C                     0.098311
     14 C                    -0.133883
     15 C                    -0.334155
     16 H                     0.147406
     17 H                     0.147226
     18 H                     0.144428
     19 H                     0.142417
     20 H                     0.164438
     21 H                     0.152206
     22 H                     0.147071
     23 H                     0.150450
     24 H                     0.149424
  ----------------------------------------
  Sum of atomic charges =     0.000000

                    Cartesian Multipole Moments
 -----------------------------------------------------------------
    Charge (ESU x 10^10)
                 0.0000
    Dipole Moment (Debye)
         X       2.6617      Y      -0.1382      Z       0.0588
       Tot       2.6659
    Quadrupole Moments (Debye-Ang)
        XX     -83.2722     XY       0.9438     YY     -76.7452
        XZ      -0.5038     YZ       0.6946     ZZ     -86.9317

 Total job time:  38.25s(wall), 37.41s(cpu)
        *  Thank you very much for using Q-Chem.  Have a nice day.  *
