 Q-Chem 5.2, Q-Chem, Inc., Pleasanton, CA (2019)
 Q-Chem 5.2.1 for Intel X86 EM64T Linux

User input:
--------------------------------------------------------------
$molecule
0 1
C         3.82179917910000    0.39398972750000   -0.09232856740000
C         2.67340897900000    1.04299191900000    0.05524208200000
C         1.33394951580000    0.46415441030000    0.03538378250000
C         1.10608445230000   -0.90660738170000    0.03096763150000
C        -0.18787667140000   -1.42637621620000    0.00978287820000
C        -0.35900173830000   -2.87571023130000    0.00775695460000
C        -1.50684811440000   -3.54130628240000   -0.01898512140000
C        -1.26221421880000   -0.54426593910000   -0.00758598490000
C        -1.05408832170000    0.83236683810000   -0.00002047180000
O        -2.18504339920000    1.59641852940000   -0.01626194520000
C        -2.05149541390000    2.99574985630000   -0.01260138690000
C         0.23963035950000    1.33285877020000    0.02489148160000
H         4.76481587840000    0.91280002590000   -0.06648491080000
H         3.87486876320000   -0.66950378070000   -0.24983293730000
H         2.69700714280000    2.11760611970000    0.19437628370000
H         1.94166536220000   -1.58882181430000    0.05273128050000
H         0.56875546290000   -3.43499990090000    0.03004689400000
H        -2.46458801700000   -3.05107577690000   -0.04260639020000
H        -1.52912879550000   -4.61775271510000   -0.01855819420000
H        -2.27997298780000   -0.89680903400000   -0.02407067800000
H        -3.06688841700000    3.38890847350000   -0.03093454090000
H        -1.51140095940000    3.35167342050000   -0.89635496560000
H        -1.54432204280000    3.35031164530000    0.89098763330000
H         0.42330354850000    2.39638883810000    0.03150565760000
$end

$rem
BASIS = 6-31G*
GUI = 2
METHOD = B3LYP
PRINT_ORBITALS false
MOLDEN_FORMAT false
--------------------------------------------------------------

             Standard Nuclear Orientation (Angstroms)
    I     Atom           X                Y                Z
 ----------------------------------------------------------------
    1      C      -0.0006470506    -3.8308335751     0.0870917681
    2      C      -0.7622621104    -2.7534685862    -0.0578501998
    3      C      -0.3212226906    -1.3625499342    -0.0371523513
    4      C       1.0196291834    -0.9978031945    -0.0347135661
    5      C       1.4064845954     0.3418982675    -0.0126521171
    6      C       2.8312188406     0.6581090923    -0.0128109149
    7      C       3.3778843385     1.8671180599     0.0143680237
    8      C       0.4207001723     1.3219181338     0.0076337618
    9      C      -0.9279863112     0.9762226374     0.0020819930
   10      O      -1.8020161952     2.0244628176     0.0211200095
   11      C      -3.1807891586     1.7506755531     0.0196114649
   12      C      -1.2956939495    -0.3612919246    -0.0237384446
   13      H      -0.4218989870    -4.8212730227     0.0608425343
   14      H       1.0630651653    -3.7767166119     0.2427520566
   15      H      -1.8292846988    -2.8850049423    -0.1952250982
   16      H       1.7824824378    -1.7604061787    -0.0587395148
   17      H       3.4810541006    -0.2085802859    -0.0372824642
   18      H       2.7937400398     2.7705908780     0.0400962023
   19      H       4.4466122010     1.9976917562     0.0121772857
   20      H       0.6689867399     2.3699863024     0.0249018003
   21      H      -3.6741706423     2.7212903581     0.0399674332
   22      H      -3.4789274794     1.1764472072     0.9032286555
   23      H      -3.4840937303     1.2114333147    -0.8840677665
   24      H      -2.3353307400    -0.6511284928    -0.0288277057
 ----------------------------------------------------------------

    9    -501.5681240146      1.77e-06  Convergence criterion met
 Total energy in the final basis set =     -501.5681240146

                    Orbital Energies (a.u.)
 --------------------------------------------------------------

 Alpha MOs
 -- Occupied --
-19.1759 -10.2442 -10.2392 -10.1947 -10.1935 -10.1894 -10.1872 -10.1840
-10.1788 -10.1784 -10.1779 -10.1771  -1.0660  -0.8634  -0.8028  -0.7793
 -0.7400  -0.7247  -0.6925  -0.6325  -0.6148  -0.5713  -0.5395  -0.5205
 -0.4961  -0.4875  -0.4702  -0.4579  -0.4536  -0.4287  -0.4213  -0.4042
 -0.3861  -0.3744  -0.3684  -0.3557  -0.3440  -0.3340  -0.3255  -0.3149
 -0.2600  -0.2194  -0.2123

          Ground-State Mulliken Net Atomic Charges

     Atom                 Charge (a.u.)
  ----------------------------------------
      1 C                    -0.350678
      2 C                    -0.114431
      3 C                     0.186710
      4 C                    -0.272497
      5 C                     0.189949
      6 C                    -0.113062
      7 C                    -0.351689
      8 C                    -0.244978
      9 C                     0.390971
     10 O                    -0.510128
     11 C                    -0.212915
     12 C                    -0.276062
     13 H                     0.143205
     14 H                     0.144178
     15 H                     0.123879
     16 H                     0.122027
     17 H                     0.125985
     18 H                     0.145219
     19 H                     0.143327
     20 H                     0.133319
     21 H                     0.168923
     22 H                     0.150391
     23 H                     0.149995
     24 H                     0.128364
  ----------------------------------------
  Sum of atomic charges =     0.000000

                    Cartesian Multipole Moments
 -----------------------------------------------------------------
    Charge (ESU x 10^10)
                 0.0000
    Dipole Moment (Debye)
         X      -1.2895      Y      -0.3869      Z      -0.0031
       Tot       1.3463
    Quadrupole Moments (Debye-Ang)
        XX     -58.5363     XY      -1.3105     YY     -67.4664
        XZ       0.3021     YZ       0.0385     ZZ     -75.3695

 Total job time:  30.88s(wall), 30.76s(cpu)
        *  Thank you very much for using Q-Chem.  Have a nice day.  *
