 Q-Chem 5.2, Q-Chem, Inc., Pleasanton, CA (2019)
 Q-Chem 5.2.1 for Intel X86 EM64T Linux

User input:
--------------------------------------------------------------
$molecule
0 1
F         2.17225346010000    5.57588635300000   -0.14239889340000
C         2.06545885610000    4.24740200520000   -0.08249176170000
F         0.78162681450000    3.92949256400000    0.05713015530000
C         3.10898351020000    3.43391808840000   -0.15019535820000
C         3.13270785590000    1.98188542530000   -0.09296881280000
C         4.39089076130000    1.35376763410000   -0.07485134020000
C         4.51689930780000   -0.01639043820000   -0.03274234260000
C         1.97156101050000    1.21305317160000   -0.06106356150000
C         2.09763817230000   -0.16405969960000    0.00436193850000
C         3.36566228450000   -0.79358942290000    0.00466749480000
C         3.12024645240000   -2.20551054320000    0.03230772870000
C         3.94958858130000   -3.32011301720000    0.06156461020000
C         3.37165110780000   -4.57211498700000    0.10792208910000
C         1.98612171810000   -4.72143753920000    0.13994262690000
C         1.14079475470000   -3.62935905880000    0.11164035290000
C         1.71475409930000   -2.36769320640000    0.04153475230000
N         1.11112351570000   -1.12700669720000    0.02477036990000
C        -0.27081761380000   -0.88368300250000    0.02277041500000
C        -1.09449699770000   -1.52506180760000   -0.89749789370000
C        -2.45387041700000   -1.28564919850000   -0.89436747430000
C        -3.02139745460000   -0.39133731120000    0.01110564670000
C        -4.46759090480000   -0.12949799400000    0.00373105200000
C        -5.37755061290000   -1.17055367730000   -0.16546744800000
C        -6.73749763910000   -0.92261546340000   -0.16832849980000
C        -7.21034783800000    0.36911336050000   -0.00834969530000
C        -6.31435576140000    1.41203528730000    0.15715441810000
C        -4.95419092130000    1.16570565610000    0.16620677170000
C        -2.18646666070000    0.25041905580000    0.92373739700000
C        -0.82876208360000    0.00344917360000    0.93854705040000
H         4.06457910980000    3.92806378090000   -0.25168417280000
H         5.27769860340000    1.96938593590000   -0.10032209480000
H         5.49097733650000   -0.48119600570000   -0.03271898260000
H         0.99681552430000    1.66905376970000   -0.10215382900000
H         5.02265639170000   -3.20277327820000    0.05249769300000
H         3.99720942290000   -5.45193396830000    0.12904772350000
H         1.56392949150000   -5.71415362100000    0.19178293060000
H         0.06949530510000   -3.75466547420000    0.15453514130000
H        -0.66031194260000   -2.19661759950000   -1.62328788440000
H        -3.08182386400000   -1.77536676780000   -1.62398991320000
H        -5.01512968510000   -2.18267028970000   -0.27356437780000
H        -7.43208990060000   -1.74055028290000   -0.29393422630000
H        -8.27288926340000    0.56216409730000   -0.01274446440000
H        -6.67758407550000    2.42225255290000    0.27789724170000
H        -4.25937781940000    1.98528112570000    0.27794715580000
H        -2.61072815350000    0.93023084260000    1.64743552180000
H        -0.19552918430000    0.48563437540000    1.66807547540000
$end

$rem
BASIS = 6-31G*
GUI = 2
METHOD = B3LYP
PRINT_ORBITALS false
MOLDEN_FORMAT false
--------------------------------------------------------------

             Standard Nuclear Orientation (Angstroms)
    I     Atom           X                Y                Z
 ----------------------------------------------------------------
    1      F      -2.1222757399    -5.6636783782    -0.1605233599
    2      C      -2.0358884007    -4.3338990689    -0.0965793962
    3      F      -0.7571241825    -3.9967584199     0.0444300376
    4      C      -3.0917485412    -3.5363157497    -0.1621825695
    5      C      -3.1377591003    -2.0849970168    -0.1005908431
    6      C      -4.4054337524    -1.4763084722    -0.0810036525
    7      C      -4.5524562438    -0.1083775431    -0.0348103135
    8      C      -1.9885511085    -1.2985454303    -0.0659805911
    9      C      -2.1357556285     0.0762680565     0.0035500674
   10      C      -3.4132868354     0.6862711509     0.0053263750
   11      C      -3.1895650716     2.1017005323     0.0373013920
   12      C      -4.0359147352     3.2033582195     0.0696370396
   13      C      -3.4772629072     4.4639316992     0.1199590915
   14      C      -2.0941962689     4.6343904803     0.1528939833
   15      C      -1.2322094194     3.5554963282     0.1215861410
   16      C      -1.7867284863     2.2853928038     0.0474883040
   17      N      -1.1641334379     1.0541668661     0.0271896322
   18      C       0.2213779280     0.8320749685     0.0249203659
   19      C       1.0353885242     1.4887850761    -0.8931356470
   20      C       2.3982733608     1.2702421688    -0.8902703526
   21      C       2.9791894290     0.3820126595     0.0126953851
   22      C       4.4292311158     0.1424091092     0.0050172886
   23      C       5.3231641067     1.1978048598    -0.1607396296
   24      C       6.6867549881     0.9707642617    -0.1638912649
   25      C       7.1793168580    -0.3140368293    -0.0076451649
   26      C       6.2993795491    -1.3710732167     0.1544164479
   27      C       4.9355937628    -1.1456630230     0.1637544387
   28      C       2.1539367467    -0.2752244993     0.9231099634
   29      C       0.7925994481    -0.0491537657     0.9382079811
   30      H      -4.0396227204    -4.0447517054    -0.2654797833
   31      H      -5.2826870082    -2.1053764619    -0.1086259470
   32      H      -5.5335492067     0.3414308802    -0.0337137369
   33      H      -1.0069139479    -1.7394158358    -0.1081171430
   34      H      -5.1070537838     3.0696015947     0.0598568030
   35      H      -4.1162490887     5.3339847195     0.1435247370
   36      H      -1.6872958066     5.6333044118     0.2078656450
   37      H      -0.1629705058     3.6970894843     0.1652174954
   38      H       0.5911635958     2.1557888376    -1.6170452750
   39      H       3.0188522238     1.7717324292    -1.6182038154
   40      H       4.9452924267     2.2045651405    -0.2659092202
   41      H       7.3687556807     1.7996316254    -0.2867998730
   42      H       8.2446956746    -0.4907535983    -0.0122649540
   43      H       6.6780257296    -2.3759601481     0.2722378657
   44      H       4.2534014312    -1.9761323959     0.2727927524
   45      H       2.5883665228    -0.9506291426     1.6448995400
   46      H       0.1666262437    -0.5431932708     1.6660683464
 ----------------------------------------------------------------

    9   -1255.4435828731      4.47e-06  Convergence criterion met
 Total energy in the final basis set =    -1255.4435828731

                    Orbital Energies (a.u.)
 --------------------------------------------------------------

 Alpha MOs
 -- Occupied --
-24.7414 -24.7303 -14.3832 -10.3522 -10.2366 -10.2225 -10.2214 -10.2028
-10.2017 -10.1997 -10.1981 -10.1975 -10.1972 -10.1963 -10.1960 -10.1900
-10.1898 -10.1892 -10.1889 -10.1886 -10.1877 -10.1855 -10.1851 -10.1849
-10.1845 -10.1844 -10.1838 -10.1821 -10.1779  -1.2812  -1.2204  -1.0033
 -0.8829  -0.8650  -0.8563  -0.8452  -0.8117  -0.7876  -0.7665  -0.7642
 -0.7537  -0.7489  -0.7427  -0.7161  -0.7112  -0.6595  -0.6401  -0.6336
 -0.6192  -0.6117  -0.5992  -0.5960  -0.5795  -0.5791  -0.5672  -0.5430
 -0.5313  -0.5287  -0.5152  -0.5095  -0.4979  -0.4835  -0.4804  -0.4622
 -0.4575  -0.4503  -0.4488  -0.4437  -0.4393  -0.4375  -0.4368  -0.4355
 -0.4325  -0.4248  -0.4229  -0.4203  -0.4129  -0.4034  -0.3893  -0.3834
 -0.3725  -0.3707  -0.3650  -0.3627  -0.3590  -0.3449  -0.3441  -0.3399
 -0.3359  -0.3304  -0.3032  -0.2783  -0.2640  -0.2553  -0.2551  -0.2537
 -0.2355  -0.2010  -0.1974

          Ground-State Mulliken Net Atomic Charges

     Atom                 Charge (a.u.)
  ----------------------------------------
      1 F                    -0.251619
      2 C                     0.542209
      3 F                    -0.237685
      4 C                    -0.303664
      5 C                     0.196713
      6 C                    -0.218112
      7 C                    -0.195302
      8 C                    -0.260916
      9 C                     0.319647
     10 C                     0.066794
     11 C                     0.057013
     12 C                    -0.193874
     13 C                    -0.145488
     14 C                    -0.138399
     15 C                    -0.177441
     16 C                     0.315361
     17 N                    -0.737937
     18 C                     0.285577
     19 C                    -0.161650
     20 C                    -0.187890
     21 C                     0.098145
     22 C                     0.085296
     23 C                    -0.170249
     24 C                    -0.132672
     25 C                    -0.123581
     26 C                    -0.132993
     27 C                    -0.170331
     28 C                    -0.186979
     29 C                    -0.161352
     30 H                     0.158976
     31 H                     0.121770
     32 H                     0.131606
     33 H                     0.151390
     34 H                     0.128647
     35 H                     0.122126
     36 H                     0.125354
     37 H                     0.139059
     38 H                     0.152674
     39 H                     0.139746
     40 H                     0.130834
     41 H                     0.130424
     42 H                     0.129592
     43 H                     0.131125
     44 H                     0.133283
     45 H                     0.140803
     46 H                     0.153971
  ----------------------------------------
  Sum of atomic charges =     0.000000

                    Cartesian Multipole Moments
 -----------------------------------------------------------------
    Charge (ESU x 10^10)
                 0.0000
    Dipole Moment (Debye)
         X       1.0988      Y       0.7381      Z      -0.0273
       Tot       1.3239
    Quadrupole Moments (Debye-Ang)
        XX    -142.6872     XY       1.6097     YY    -157.9082
        XZ      -0.3503     YZ      -3.6056     ZZ    -166.8616

 Total job time:  165.24s(wall), 164.82s(cpu)
        *  Thank you very much for using Q-Chem.  Have a nice day.  *
