 Q-Chem 5.4, Q-Chem, Inc., Pleasanton, CA (2021)
 Q-Chem 5.4.2 for Intel X86 EM64T Linux

User input:
--------------------------------------------------------------
$molecule
0 1
C           -3.64262279770000        1.32757286610000       -0.76941332040000
C           -2.56771552570000        1.36993782640000        0.00260057680000
C           -1.53959721970000        0.31061068660000       -0.00839952120000
C           -2.01038672350000       -0.97398382210000        0.26126254220000
C           -1.16607069630000       -2.06558343460000        0.25830947810000
Cl          -1.79355773970000       -3.64301974040000        0.58673711160000
C            0.17884821510000       -1.90041728340000       -0.01138346290000
C            0.68088766620000       -0.63076178390000       -0.26243221900000
C            2.11191928700000       -0.51624556270000       -0.54627202730000
C            2.93654984240000        0.43250552600000       -0.13771594870000
F            2.66529827620000        1.46722498570000        0.64203964320000
F            4.23582305400000        0.44555672140000       -0.43337243950000
C           -0.17436214480000        0.49371893850000       -0.28354191260000
O            0.43478686110000        1.62837484560000       -0.70566664800000
C           -0.11476495170000        2.91709288550000       -0.51903459030000
C            0.01459419340000        3.39588079760000        0.92307255740000
H           -4.40972321760000        2.08090317780000       -0.71546434880000
H           -3.78174986010000        0.54880576190000       -1.50071281540000
H           -2.45830623020000        2.16065360280000        0.73289501310000
H           -3.06000351490000       -1.10485105970000        0.47329034180000
H            0.84373049100000       -2.74939668810000       -0.01256484830000
H            2.55868689820000       -1.31526685010000       -1.11927465480000
H           -1.15511505050000        2.94801792620000       -0.86026734750000
H            0.48602349190000        3.55425729230000       -1.17433190700000
H           -0.49012187430000        2.71529682840000        1.60504663040000
H           -0.41966368220000        4.38701960340000        1.02142189560000
H            1.06302631010000        3.43640293230000        1.20439774750000
$end

$rem
BASIS = 6-31G*
GUI = 2
METHOD = B3LYP
PRINT_ORBITALS false
MOLDEN_FORMAT false
$end
--------------------------------------------------------------

             Standard Nuclear Orientation (Angstroms)
    I     Atom           X                Y                Z
 ----------------------------------------------------------------
    1      C      -1.8783220989     3.3002108285    -0.7503362881
    2      C      -1.0724489702     2.6090082917     0.0408864645
    3      C      -0.9756342151     1.1369709996    -0.0143888131
    4      C      -2.1788535852     0.4572282934     0.1720419725
    5      C      -2.2431288802    -0.9203089937     0.1198146099
    6      Cl     -3.7580545618    -1.7228724076     0.3452079210
    7      C      -1.0996710305    -1.6587016009    -0.1170429885
    8      C       0.1167037271    -1.0112159829    -0.2852363278
    9      C       1.2935867277    -1.8435229092    -0.5377082767
   10      C       2.5142020062    -1.6712968530    -0.0607399569
   11      F       2.9381851043    -0.7348312986     0.7732331562
   12      F       3.5257956253    -2.4948080383    -0.3331397550
   13      C       0.1951649318     0.3992102984    -0.2552980959
   14      O       1.4142802134     0.8802780459    -0.6003018402
   15      C       1.8210357739     2.2101903356    -0.3482777896
   16      C       2.1563287852     2.4420414034     1.1212351766
   17      H      -1.9768589608     4.3688404766    -0.6655939352
   18      H      -2.4512018016     2.8230127663    -1.5279765322
   19      H      -0.5143863622     3.1146092510     0.8177169429
   20      H      -3.0725952124     1.0319467698     0.3583267202
   21      H      -1.1434613248    -2.7354413631    -0.1564099871
   22      H       1.1451923406    -2.7216639162    -1.1486221864
   23      H       1.0670770459     2.9203041276    -0.7046611782
   24      H       2.7235762180     2.3263549367    -0.9551273101
   25      H       1.2974018798     2.2296324498     1.7538080910
   26      H       2.4626222982     3.4738999973     1.2697638044
   27      H       2.9657141271     1.7829804321     1.4221169037
 ----------------------------------------------------------------

    9   -1198.9319242707      5.37e-06  Convergence criterion met
 Total energy in the final basis set =    -1198.9319242707

                    Orbital Energies (a.u.)
 --------------------------------------------------------------

 Alpha MOs
 -- Occupied --
******** -24.7369 -24.7306 -19.1804 -10.3533 -10.2598 -10.2449 -10.2418
-10.2100 -10.2083 -10.2026 -10.1997 -10.1997 -10.1985 -10.1888 -10.1853
 -9.4619  -7.2257  -7.2162  -7.2158  -1.2808  -1.2196  -1.0743  -0.8967
 -0.8500  -0.8222  -0.7811  -0.7762  -0.7369  -0.7216  -0.6579  -0.6488
 -0.6214  -0.5964  -0.5762  -0.5644  -0.5374  -0.5240  -0.5139  -0.4986
 -0.4807  -0.4708  -0.4643  -0.4489  -0.4423  -0.4360  -0.4327  -0.4304
 -0.4104  -0.4040  -0.4034  -0.3940  -0.3880  -0.3728  -0.3591  -0.3547
 -0.3288  -0.3108  -0.3068  -0.2928  -0.2704  -0.2360  -0.2123

          Ground-State Mulliken Net Atomic Charges

     Atom                 Charge (a.u.)
  ----------------------------------------
      1 C                    -0.321320
      2 C                    -0.162250
      3 C                     0.099946
      4 C                    -0.185180
      5 C                    -0.068965
      6 Cl                   -0.022265
      7 C                    -0.189100
      8 C                     0.111329
      9 C                    -0.311724
     10 C                     0.573231
     11 F                    -0.231343
     12 F                    -0.250437
     13 C                     0.274328
     14 O                    -0.519757
     15 C                    -0.049625
     16 C                    -0.469403
     17 H                     0.145905
     18 H                     0.154441
     19 H                     0.154551
     20 H                     0.153810
     21 H                     0.150736
     22 H                     0.167652
     23 H                     0.159450
     24 H                     0.155390
     25 H                     0.159608
     26 H                     0.150214
     27 H                     0.170778
  ----------------------------------------
  Sum of atomic charges =     0.000000

                    Cartesian Multipole Moments
 -----------------------------------------------------------------
    Charge (ESU x 10^10)
                 0.0000
    Dipole Moment (Debye)
         X       0.9681      Y       2.3745      Z      -0.1235
       Tot       2.5672
    Quadrupole Moments (Debye-Ang)
        XX    -104.1844     XY       0.1168     YY     -88.1825
        XZ       1.4047     YZ       1.6408     ZZ     -98.8125

 Total job time:  78.22s(wall), 74.94s(cpu)
        *  Thank you very much for using Q-Chem.  Have a nice day.  *
