 Q-Chem 5.2, Q-Chem, Inc., Pleasanton, CA (2019)
 Q-Chem 5.2.1 for Intel X86 EM64T Linux

User input:
--------------------------------------------------------------
$molecule
0 1
C        -1.70375225680000   -3.03973387900000   -0.91916724230000
C        -1.11813651210000   -2.43144919430000    0.09997126740000
C        -0.75248844770000   -1.00289440430000    0.09101172570000
C        -1.66275866240000    0.03518849240000    0.02181960080000
O        -3.02409372460000   -0.04065592630000    0.06863618070000
C        -3.68125417070000   -1.16003054850000    0.60973984360000
C        -1.20353522190000    1.36366656920000   -0.09132029000000
C         0.12338223870000    1.72025666760000   -0.10107277250000
C         0.44294562790000    3.13494187790000   -0.22855686400000
C         1.64559953960000    3.69636398970000   -0.28399889010000
C         1.08761741060000    0.67212461100000    0.02559875200000
N         2.39604899750000    0.97191471210000    0.05570988100000
C         3.28091425680000    0.01848123150000    0.14309660850000
C         2.94829714640000   -1.34136044070000    0.19335394080000
C         1.62261420210000   -1.68128493960000    0.17031422780000
C         0.63331054900000   -0.67590211960000    0.10652520080000
H        -1.93950985220000   -4.09064199840000   -0.89749572590000
H        -1.96293775870000   -2.50633244150000   -1.81950017060000
H        -0.83692637110000   -2.99448075910000    0.98342574010000
H        -4.65564361950000   -0.79557034910000    0.93863004520000
H        -3.14073507320000   -1.57227747980000    1.46512312810000
H        -3.82350212010000   -1.94795257390000   -0.13572801760000
H        -1.96932605430000    2.12206143410000   -0.16516089820000
H        -0.43562945100000    3.76839979920000   -0.28774778380000
H         2.54330380070000    3.10914171050000   -0.23055615160000
H         1.75010304000000    4.76455785830000   -0.38254575280000
H         4.31596768360000    0.33669218710000    0.16748170040000
H         3.72091858550000   -2.09308460230000    0.24462811620000
H         1.32585779800000   -2.71967577590000    0.19441246750000
$end

$rem
BASIS = 6-31G*
GUI = 2
METHOD = B3LYP
PRINT_ORBITALS false
MOLDEN_FORMAT false
--------------------------------------------------------------

             Standard Nuclear Orientation (Angstroms)
    I     Atom           X                Y                Z
 ----------------------------------------------------------------
    1      C      -3.0902254588     1.5103135528     0.9780872141
    2      C      -2.2748504707     1.3582495809    -0.0532418010
    3      C      -1.1604355008     0.3926896399    -0.0711539094
    4      C      -1.3162490059    -0.9798974913    -0.0189788842
    5      O      -2.4787345103    -1.6926372705    -0.0614851036
    6      C      -3.6630453133    -1.1398895216    -0.5806482945
    7      C      -0.1806810467    -1.8113442706     0.0688986835
    8      C       1.1130066764    -1.3483826360     0.0692941972
    9      C       2.1830911890    -2.3304399427     0.1702386365
   10      C       3.4919080611    -2.1072171941     0.2128418877
   11      C       1.3067429756     0.0640036812    -0.0402826578
   12      N       2.5523964151     0.5636516963    -0.0786671882
   13      C       2.7353349572     1.8524605671    -0.1505250591
   14      C       1.6867063360     2.7809523711    -0.1752293036
   15      C       0.4039261997     2.3045486659    -0.1431451374
   16      C       0.1644706652     0.9138702593    -0.0956057920
   17      H      -3.8829149505     2.2397644791     0.9761150083
   18      H      -2.9883928043     0.9119407047     1.8690830867
   19      H      -2.3752583641     1.9932855301    -0.9268682028
   20      H      -4.2601461261    -1.9900358087    -0.9140500185
   21      H      -3.4641188277    -0.4813772210    -1.4295174209
   22      H      -4.2197387819    -0.5838162655     0.1793864713
   23      H      -0.3770428072    -2.8718610265     0.1305190935
   24      H       1.8226934395    -3.3523647177     0.2197349871
   25      H       3.8944353421    -1.1124616326     0.1682074524
   26      H       4.1875191752    -2.9267208938     0.2916420835
   27      H       3.7668973328     2.1811201184    -0.1829350243
   28      H       1.8927560499     3.8395691437    -0.2144235462
   29      H      -0.4317890860     2.9889903078    -0.1476415054
 ----------------------------------------------------------------

    9    -671.2313012063      3.49e-06  Convergence criterion met
 Total energy in the final basis set =     -671.2313012063

                    Orbital Energies (a.u.)
 --------------------------------------------------------------

 Alpha MOs
 -- Occupied --
-19.1788 -14.3195 -10.2519 -10.2354 -10.2176 -10.2159 -10.2013 -10.2001
-10.1991 -10.1969 -10.1951 -10.1926 -10.1879 -10.1857 -10.1770 -10.1605
 -1.0677  -0.9465  -0.8579  -0.8213  -0.7874  -0.7700  -0.7563  -0.7179
 -0.7000  -0.6385  -0.6301  -0.6212  -0.5759  -0.5561  -0.5371  -0.5191
 -0.5040  -0.4777  -0.4755  -0.4633  -0.4623  -0.4453  -0.4304  -0.4282
 -0.4122  -0.4053  -0.3981  -0.3877  -0.3705  -0.3634  -0.3545  -0.3470
 -0.3369  -0.3238  -0.2992  -0.2710  -0.2632  -0.2403  -0.2298  -0.2054

          Ground-State Mulliken Net Atomic Charges

     Atom                 Charge (a.u.)
  ----------------------------------------
      1 C                    -0.316539
      2 C                    -0.174852
      3 C                     0.026295
      4 C                     0.319439
      5 O                    -0.512299
      6 C                    -0.204143
      7 C                    -0.297769
      8 C                     0.210267
      9 C                    -0.126438
     10 C                    -0.342548
     11 C                     0.185479
     12 N                    -0.516754
     13 C                     0.046825
     14 C                    -0.156523
     15 C                    -0.152819
     16 C                     0.117648
     17 H                     0.144536
     18 H                     0.155247
     19 H                     0.144971
     20 H                     0.158230
     21 H                     0.149503
     22 H                     0.157469
     23 H                     0.141792
     24 H                     0.120034
     25 H                     0.186587
     26 H                     0.127713
     27 H                     0.134102
     28 H                     0.134323
     29 H                     0.140227
  ----------------------------------------
  Sum of atomic charges =     0.000000

                    Cartesian Multipole Moments
 -----------------------------------------------------------------
    Charge (ESU x 10^10)
                 0.0000
    Dipole Moment (Debye)
         X      -2.6018      Y       1.8463      Z      -0.5388
       Tot       3.2355
    Quadrupole Moments (Debye-Ang)
        XX     -84.9371     XY       0.7325     YY     -85.0321
        XZ       1.5066     YZ      -0.6039     ZZ     -94.4287

 Total job time:  55.94s(wall), 55.77s(cpu)
        *  Thank you very much for using Q-Chem.  Have a nice day.  *
