 Q-Chem 5.2, Q-Chem, Inc., Pleasanton, CA (2019)
 Q-Chem 5.2.1 for Intel X86 EM64T Linux

User input:
--------------------------------------------------------------
$molecule
0 1
C        -3.12951173320000   -0.58857867930000    0.85485760360000
C        -2.60487975490000    0.20373728270000   -0.06661619030000
C        -1.19016442400000    0.58749284570000   -0.13862106130000
C        -0.90364268810000    1.94258010720000   -0.30790760850000
C         0.39717494450000    2.39620388160000   -0.27996055570000
C         1.44458678570000    1.50947025380000   -0.08771697990000
C         1.18211154010000    0.15467745240000    0.05522222690000
O         2.14604052400000   -0.79954510050000    0.21777863170000
C         3.49128526590000   -0.39748323740000    0.27074488960000
C        -0.14206966130000   -0.32344024590000    0.01574715100000
C        -0.33266043400000   -1.77585315250000    0.09144957740000
C        -1.10078711600000   -2.47805943400000   -0.72642939830000
H        -4.18586758960000   -0.79421297240000    0.89091259010000
H        -2.52112389020000   -1.06423128370000    1.60542991180000
H        -3.24957321050000    0.69440258240000   -0.78630314300000
H        -1.71771830660000    2.64051723070000   -0.43798768880000
H         0.60856773870000    3.44805006750000   -0.40377093590000
H         2.45505033110000    1.88529108100000   -0.06227154820000
H         4.06524208650000   -1.31209659410000    0.41348406040000
H         3.67891673840000    0.28044122810000    1.11020644990000
H         3.80611563590000    0.08258504060000   -0.66173914390000
H         0.27834782140000   -2.27767391190000    0.83073480460000
H        -1.68505933950000   -2.00828411980000   -1.50007039680000
H        -1.17661200220000   -3.54944975200000   -0.65141964410000
$end

$rem
BASIS = 6-31G*
GUI = 2
METHOD = B3LYP
PRINT_ORBITALS false
MOLDEN_FORMAT false
--------------------------------------------------------------

             Standard Nuclear Orientation (Angstroms)
    I     Atom           X                Y                Z
 ----------------------------------------------------------------
    1      C       3.1744778490    -0.2248002773    -0.8604928710
    2      C       2.5613304471     0.5353844975     0.0329759986
    3      C       1.1106041487     0.7457861157     0.1036645220
    4      C       0.6608311965     2.0615266266     0.2200489108
    5      C      -0.6859482374     2.3509468423     0.1868348338
    6      C      -1.6176018402     1.3353891151     0.0419564317
    7      C      -1.1915938357     0.0181052142    -0.0478695694
    8      O      -2.0319618607    -1.0529077663    -0.1611706261
    9      C      -3.4166332784    -0.8211054654    -0.2168064073
   10      C       0.1814374161    -0.2922586487    -0.0023709629
   11      C       0.5484309153    -1.7123129852    -0.0202708021
   12      C       1.4011236731    -2.2802105654     0.8178495231
   13      H       4.2478845938    -0.3009284495    -0.8989061697
   14      H       2.6252039226    -0.8024750677    -1.5845991807
   15      H       3.1446338205     1.1310907582     0.7252350711
   16      H       1.3837638590     2.8587026118     0.3129735175
   17      H      -1.0241823873     3.3732797319     0.2694752907
   18      H      -2.6666650332     1.5833037764     0.0114592399
   19      H      -3.8747405747    -1.8042784262    -0.3159382858
   20      H      -3.6903574095    -0.2071431872    -1.0814498498
   21      H      -3.7831929091    -0.3444008783     0.6983421926
   22      H      -0.0001742174    -2.3157820173    -0.7319978182
   23      H       1.9273045485    -1.7103453285     1.5654928672
   24      H       1.6074659478    -3.3364642096     0.7861604894
 ----------------------------------------------------------------

    9    -501.5537240199      2.02e-06  Convergence criterion met
 Total energy in the final basis set =     -501.5537240199

                    Orbital Energies (a.u.)
 --------------------------------------------------------------

 Alpha MOs
 -- Occupied --
-19.1768 -10.2423 -10.2393 -10.1902 -10.1862 -10.1840 -10.1813 -10.1810
-10.1759 -10.1751 -10.1706 -10.1662  -1.0668  -0.8603  -0.7907  -0.7787
 -0.7375  -0.7177  -0.6916  -0.6290  -0.5936  -0.5717  -0.5413  -0.5204
 -0.4882  -0.4757  -0.4705  -0.4594  -0.4449  -0.4286  -0.4195  -0.4052
 -0.3815  -0.3729  -0.3681  -0.3526  -0.3439  -0.3202  -0.3150  -0.2771
 -0.2742  -0.2159  -0.2066

          Ground-State Mulliken Net Atomic Charges

     Atom                 Charge (a.u.)
  ----------------------------------------
      1 C                    -0.307291
      2 C                    -0.154223
      3 C                     0.096345
      4 C                    -0.184255
      5 C                    -0.132368
      6 C                    -0.195208
      7 C                     0.332346
      8 O                    -0.503972
      9 C                    -0.213908
     10 C                     0.014676
     11 C                    -0.121720
     12 C                    -0.312035
     13 H                     0.137512
     14 H                     0.147429
     15 H                     0.131269
     16 H                     0.121796
     17 H                     0.127564
     18 H                     0.128700
     19 H                     0.168794
     20 H                     0.150204
     21 H                     0.151623
     22 H                     0.139609
     23 H                     0.141593
     24 H                     0.135518
  ----------------------------------------
  Sum of atomic charges =     0.000000

                    Cartesian Multipole Moments
 -----------------------------------------------------------------
    Charge (ESU x 10^10)
                 0.0000
    Dipole Moment (Debye)
         X      -1.4009      Y       0.4470      Z      -0.0991
       Tot       1.4738
    Quadrupole Moments (Debye-Ang)
        XX     -59.1067     XY      -0.2076     YY     -67.7459
        XZ       1.7331     YZ       2.0289     ZZ     -72.3456

 Total job time:  34.23s(wall), 34.01s(cpu)
        *  Thank you very much for using Q-Chem.  Have a nice day.  *
