 Q-Chem 5.2, Q-Chem, Inc., Pleasanton, CA (2019)
 Q-Chem 5.2.1 for Intel X86 EM64T Linux

User input:
--------------------------------------------------------------
$molecule
0 1
F         6.72713302260000   -0.20388910550000   -0.13044066300000
C         5.43919016390000   -0.01262705000000    0.14899932230000
F         5.34303211250000    0.68297303610000    1.27566752930000
C         4.45818108980000   -0.46899779070000   -0.61669411380000
C         3.02451194210000   -0.33004752490000   -0.42933949400000
C         2.44741550960000    0.33116940470000    0.65783520510000
C         1.07644556970000    0.42780453060000    0.77504233640000
C         0.24165464160000   -0.12925956480000   -0.19090626090000
N        -1.15770222960000   -0.02487629660000   -0.07083707490000
C        -1.78095432560000    1.22654772090000   -0.07733056660000
C        -3.17500625490000    1.29979944470000    0.04480055600000
O        -3.96546100180000    0.18296892860000    0.15359038340000
C        -3.33963864320000   -1.03838617990000    0.15287799880000
C        -1.94820122100000   -1.17104013580000    0.05258552390000
C        -1.40141818840000   -2.44574854020000    0.12948151110000
C        -2.21487739990000   -3.56186763680000    0.25443507080000
C        -3.58630913050000   -3.42266351280000    0.31636071740000
C        -4.14630582450000   -2.15439022920000    0.27489193390000
C        -3.81883210170000    2.52313303220000    0.04148116040000
C        -3.09297651680000    3.69658600950000   -0.09953824110000
C        -1.72345469000000    3.63331064200000   -0.25581405280000
C        -1.07257240700000    2.40884190650000   -0.25078179490000
C         0.80775275680000   -0.79084408020000   -1.27825305750000
C         2.17788972560000   -0.88935415700000   -1.39099133550000
H         4.77879847880000   -1.01255357200000   -1.49384449720000
H         3.06767547140000    0.76697317570000    1.42336050900000
H         0.64006302610000    0.93271016520000    1.62401682110000
H        -0.33007659750000   -2.56861448270000    0.10090420890000
H        -1.76200129810000   -4.53998621720000    0.30663308820000
H        -4.22387152890000   -4.28761142660000    0.40858479200000
H        -5.21245931050000   -2.00801326890000    0.34205478100000
H        -4.89206287460000    2.53472004760000    0.14480044840000
H        -3.60360590220000    4.64651452660000   -0.09785843920000
H        -1.14611208120000    4.53547455510000   -0.38711599030000
H        -0.00371700020000    2.37423763640000   -0.39185847960000
H         0.16523023740000   -1.21891258400000   -2.03332443940000
H         2.60520861450000   -1.39993656430000   -2.24141979420000
$end

$rem
BASIS = 6-31G*
GUI = 2
METHOD = B3LYP
PRINT_ORBITALS false
MOLDEN_FORMAT false
--------------------------------------------------------------

             Standard Nuclear Orientation (Angstroms)
    I     Atom           X                Y                Z
 ----------------------------------------------------------------
    1      F      -6.7935344855    -0.1858894192     0.0869801826
    2      C      -5.5038896087     0.0033887624    -0.1858834248
    3      F      -5.4009449695     0.7008055585    -1.3108275626
    4      C      -4.5274755680    -0.4562317683     0.5837295191
    5      C      -3.0926524622    -0.3197096517     0.4035614814
    6      C      -2.5090330717     0.3423276562    -0.6796245399
    7      C      -1.1373290397     0.4365307360    -0.7900250098
    8      C      -0.3082936633    -0.1238574590     0.1789530128
    9      N       1.0918256251    -0.0219558397     0.0658417083
   10      C       1.7174370321     1.2282520642     0.0775880521
   11      C       3.1122017481     1.2990361304    -0.0376664960
   12      O       3.9010312848     0.1808807230    -0.1446280867
   13      C       3.2728724130    -1.0392662443    -0.1491273135
   14      C       1.8807140074    -1.1694185237    -0.0558047003
   15      C       1.3318668120    -2.4429327567    -0.1376243096
   16      C       2.1437801156    -3.5603922947    -0.2606368575
   17      C       3.5157599213    -3.4237195951    -0.3156782203
   18      C       4.0779797681    -2.1566028847    -0.2692329278
   19      C       3.7583481389     2.5211197264    -0.0290449097
   20      C       3.0340694170     3.6957156605     0.1105595905
   21      C       1.6636882998     3.6347999345     0.2600948821
   22      C       1.0104916843     2.4115978308     0.2497242897
   23      C      -0.8809164236    -0.7862838382     1.2623636781
   24      C      -2.2517694562    -0.8823555168     1.3682960309
   25      H      -4.8533770678    -1.0007286386     1.4583451851
   26      H      -3.1247431347     0.7806862568    -1.4473609487
   27      H      -0.6958744557     0.9421045282    -1.6359742346
   28      H       0.2601658436    -2.5637859207    -0.1144498951
   29      H       1.6892876267    -4.5375425056    -0.3167741598
   30      H       4.1521018882    -4.2897282948    -0.4063634929
   31      H       5.1447245728    -2.0121601508    -0.3309754288
   32      H       4.8320867557     2.5308236696    -0.1271501706
   33      H       3.5465211890     4.6446605292     0.1130487705
   34      H       1.0874474761     4.5378390167     0.3902153724
   35      H      -0.0590985409     2.3788011177     0.3855664513
   36      H      -0.2428786664    -1.2169314745     2.0197678354
   37      H      -2.6841784305    -1.3936261035     2.2157329058
 ----------------------------------------------------------------

    9   -1099.5771899374      5.45e-06  Convergence criterion met
 Total energy in the final basis set =    -1099.5771899374

                    Orbital Energies (a.u.)
 --------------------------------------------------------------

 Alpha MOs
 -- Occupied --
-24.7509 -24.7401 -19.1924 -14.3754 -10.3636 -10.2472 -10.2471 -10.2344
-10.2339 -10.2339 -10.2156 -10.2099 -10.2015 -10.1997 -10.1993 -10.1985
-10.1837 -10.1836 -10.1835 -10.1834 -10.1817 -10.1815 -10.1803 -10.1802
 -1.2918  -1.2307  -1.0907  -0.9825  -0.8766  -0.8684  -0.8402  -0.8136
 -0.7706  -0.7637  -0.7587  -0.7572  -0.7332  -0.7070  -0.6605  -0.6491
 -0.6342  -0.6294  -0.6012  -0.6001  -0.5791  -0.5724  -0.5640  -0.5460
 -0.5335  -0.5252  -0.4988  -0.4949  -0.4835  -0.4693  -0.4689  -0.4648
 -0.4544  -0.4516  -0.4469  -0.4379  -0.4352  -0.4331  -0.4318  -0.4307
 -0.4178  -0.3895  -0.3880  -0.3842  -0.3781  -0.3757  -0.3719  -0.3573
 -0.3567  -0.3531  -0.3328  -0.3226  -0.3045  -0.2685  -0.2555  -0.2549
 -0.2342  -0.2240  -0.1705

          Ground-State Mulliken Net Atomic Charges

     Atom                 Charge (a.u.)
  ----------------------------------------
      1 F                    -0.246025
      2 C                     0.546653
      3 F                    -0.233285
      4 C                    -0.301101
      5 C                     0.204826
      6 C                    -0.207393
      7 C                    -0.145540
      8 C                     0.236695
      9 N                    -0.720199
     10 C                     0.342234
     11 C                     0.319933
     12 O                    -0.576124
     13 C                     0.320205
     14 C                     0.341470
     15 C                    -0.206281
     16 C                    -0.136054
     17 C                    -0.132231
     18 C                    -0.207850
     19 C                    -0.207827
     20 C                    -0.132161
     21 C                    -0.136265
     22 C                    -0.206145
     23 C                    -0.145216
     24 C                    -0.207260
     25 H                     0.162092
     26 H                     0.145833
     27 H                     0.153129
     28 H                     0.149934
     29 H                     0.125785
     30 H                     0.126219
     31 H                     0.140489
     32 H                     0.140463
     33 H                     0.126273
     34 H                     0.126158
     35 H                     0.150358
     36 H                     0.152626
     37 H                     0.135581
  ----------------------------------------
  Sum of atomic charges =     0.000000

                    Cartesian Multipole Moments
 -----------------------------------------------------------------
    Charge (ESU x 10^10)
                 0.0000
    Dipole Moment (Debye)
         X      -1.1810      Y      -0.4454      Z       0.6836
       Tot       1.4354
    Quadrupole Moments (Debye-Ang)
        XX    -135.9677     XY       1.3967     YY    -125.8820
        XZ      -3.3438     YZ      -2.5106     ZZ    -134.2206

 Total job time:  113.98s(wall), 113.31s(cpu)
        *  Thank you very much for using Q-Chem.  Have a nice day.  *
