 Q-Chem 5.2, Q-Chem, Inc., Pleasanton, CA (2019)
 Q-Chem 5.2.1 for Intel X86 EM64T Linux

User input:
--------------------------------------------------------------
$molecule
0 1
C         4.12677050600000   -0.62107599950000   -0.00062860060000
C         3.02136348660000    0.11741694920000   -0.00103844080000
C         1.66025355860000   -0.38153511030000   -0.00010429820000
C         1.28560589200000   -1.71527928220000    0.00066232820000
N         0.03479838440000   -2.16985525770000    0.00103229520000
C        -1.00340631610000   -1.35753008770000    0.00061206900000
C        -2.31127034550000   -1.98079294150000    0.00029238140000
C        -3.47141145170000   -1.33089174610000   -0.00214486400000
C        -0.77919665120000    0.04873062330000    0.00035726610000
N        -1.65918131330000    1.04975846710000    0.00054051510000
S        -0.86082142370000    2.44428576340000    0.00028714630000
N         0.63438445130000    1.86274197780000   -0.00006330740000
C         0.57602099990000    0.53014086010000    0.00001556310000
H         5.10089768590000   -0.16363586910000   -0.00147502810000
H         4.10743027640000   -1.69744802980000    0.00053435300000
H         3.09027778660000    1.19740266850000   -0.00198780690000
H         2.03438025310000   -2.49509764290000    0.00086152430000
H        -2.27087940660000   -3.06154042270000    0.00177802050000
H        -3.51256085660000   -0.25526788170000   -0.00381367070000
H        -4.40862069470000   -1.86096418780000   -0.00245377050000
$end

$rem
BASIS = 6-31G*
GUI = 2
METHOD = B3LYP
PRINT_ORBITALS false
MOLDEN_FORMAT false
--------------------------------------------------------------

             Standard Nuclear Orientation (Angstroms)
    I     Atom           X                Y                Z
 ----------------------------------------------------------------
    1      C       4.0932045046    -0.6610470843    -0.0006526356
    2      C       3.0028940892     0.0995577600    -0.0010407401
    3      C       1.6320118790    -0.3718818840    -0.0000951112
    4      C       1.2305800844    -1.6978105848     0.0006616978
    5      N      -0.0291283977    -2.1271045059     0.0010422630
    6      C      -1.0507632250    -1.2940357936     0.0006437391
    7      C      -2.3709138312    -1.8908333198     0.0003335281
    8      C      -3.5177313966    -1.2176999557    -0.0020822630
    9      C      -0.7982785137     0.1074243870     0.0004014080
   10      N      -1.6579251223     1.1259711211     0.0006064421
   11      S      -0.8316429264     2.5041375221     0.0003582893
   12      N       0.6515480619     1.8925999050    -0.0000170370
   13      C       0.5663593491     0.5614444232     0.0000481016
   14      H       5.0763464470    -0.2233175509    -0.0015061951
   15      H       4.0521912803    -1.7368113401     0.0004988813
   16      H       3.0935441081     1.1779366031    -0.0019792458
   17      H       1.9634979192    -2.4925502740     0.0008431377
   18      H      -2.3522961137    -2.9721750617     0.0018069415
   19      H      -3.5372106125    -0.1414655148    -0.0037388902
   20      H      -4.4654256372    -1.7287905432    -0.0023852839
 ----------------------------------------------------------------

   10    -909.5479774093      4.31e-06  Convergence criterion met
 Total energy in the final basis set =     -909.5479774093

                    Orbital Energies (a.u.)
 --------------------------------------------------------------

 Alpha MOs
 -- Occupied --
-88.9871 -14.3765 -14.3732 -14.3377 -10.2491 -10.2473 -10.2448 -10.2288
-10.2148 -10.1992 -10.1920 -10.1911 -10.1859  -8.0431  -6.0083  -6.0024
 -6.0009  -1.0424  -0.9590  -0.9041  -0.8305  -0.8074  -0.7799  -0.7361
 -0.6819  -0.6480  -0.6232  -0.5948  -0.5509  -0.5385  -0.5176  -0.4758
 -0.4714  -0.4668  -0.4554  -0.4302  -0.4079  -0.4024  -0.3940  -0.3837
 -0.3715  -0.3608  -0.3250  -0.3064  -0.3019  -0.2917  -0.2804  -0.2629
 -0.2198

          Ground-State Mulliken Net Atomic Charges

     Atom                 Charge (a.u.)
  ----------------------------------------
      1 C                    -0.345709
      2 C                    -0.110359
      3 C                     0.162817
      4 C                    -0.049699
      5 N                    -0.502954
      6 C                     0.309739
      7 C                    -0.077570
      8 C                    -0.354171
      9 C                     0.214470
     10 N                    -0.573873
     11 S                     0.600226
     12 N                    -0.557341
     13 C                     0.191405
     14 H                     0.152920
     15 H                     0.149983
     16 H                     0.161317
     17 H                     0.145489
     18 H                     0.145879
     19 H                     0.189467
     20 H                     0.147965
  ----------------------------------------
  Sum of atomic charges =     0.000000

                    Cartesian Multipole Moments
 -----------------------------------------------------------------
    Charge (ESU x 10^10)
                 0.0000
    Dipole Moment (Debye)
         X       0.3066      Y       0.8009      Z      -0.0017
       Tot       0.8576
    Quadrupole Moments (Debye-Ang)
        XX     -73.1760     XY      -2.5385     YY     -79.2746
        XZ       0.0043     YZ      -0.0031     ZZ     -82.6441

 Total job time:  34.98s(wall), 34.87s(cpu)
        *  Thank you very much for using Q-Chem.  Have a nice day.  *
