 Q-Chem 5.2, Q-Chem, Inc., Pleasanton, CA (2019)
 Q-Chem 5.2.1 for Intel X86 EM64T Linux

User input:
--------------------------------------------------------------
$molecule
0 1
C         3.56955063420000   -0.28886930480000   -0.47563546890000
C         2.59098193700000    0.30864993960000    0.19019363560000
C         1.17801947930000   -0.06231673530000    0.10838109670000
C         0.83565480260000   -1.40235663330000   -0.03896289780000
C        -0.49248536090000   -1.77102493040000   -0.06216022450000
F        -0.81277545680000   -3.08327074550000   -0.17789364300000
C        -1.50247866760000   -0.83899615180000    0.04444879910000
C        -1.18993904220000    0.51290774950000    0.14808565030000
C        -2.30818808670000    1.45574498010000    0.21373884850000
C        -2.37803438790000    2.64086146830000   -0.38030137230000
C         0.16153695070000    0.91199110490000    0.20038026180000
N         0.48402059760000    2.24786450140000    0.28714362010000
H         4.59743266920000    0.00841312600000   -0.35816078440000
H         3.37929808280000   -1.08463230350000   -1.17533756120000
H         2.84010706060000    1.12285819770000    0.86215001470000
H         1.60217020560000   -2.15772164020000   -0.09892248940000
H        -2.53261413610000   -1.15920409600000    0.02507029340000
H        -3.16626445420000    1.09304720830000    0.76800472700000
H        -1.58886919280000    3.01977977750000   -1.00726703760000
H        -3.25919543430000    3.25503783490000   -0.29757182950000
H        -0.23444718350000    2.84211346770000    0.67175187040000
H         1.41960237680000    2.46284525760000    0.59074737490000
$end

$rem
BASIS = 6-31G*
GUI = 2
METHOD = B3LYP
PRINT_ORBITALS false
MOLDEN_FORMAT false
--------------------------------------------------------------

             Standard Nuclear Orientation (Angstroms)
    I     Atom           X                Y                Z
 ----------------------------------------------------------------
    1      C       3.1918924204     1.6059795109    -0.4158166268
    2      C       2.0238189143     1.5966861272     0.2114570427
    3      C       1.0401087780     0.5168375173     0.1277084920
    4      C       1.4825966638    -0.7984363566     0.0334224362
    5      C       0.5669342046    -1.8286724965     0.0092050848
    6      F       1.0118613401    -3.1077198073    -0.0544099284
    7      C      -0.7896817430    -1.5903133005     0.0631279184
    8      C      -1.2621740936    -0.2825125375     0.1128663892
    9      C      -2.7142167412    -0.0949478097     0.1240437674
   10      C      -3.3941836848     0.8452331302    -0.5209121506
   11      C      -0.3443461304     0.7867620184     0.1651479768
   12      N      -0.7992381568     2.0860000240     0.1988401651
   13      H       3.8907136704     2.4162417654    -0.2981622076
   14      H       3.4863025537     0.8142163865    -1.0832382549
   15      H       1.7698309623     2.4350471378     0.8511168948
   16      H       2.5374535721    -1.0190541791     0.0154783904
   17      H      -1.4813028733    -2.4182010214     0.0444230755
   18      H      -3.2576462107    -0.8485880506     0.6824040356
   19      H      -2.9149788319     1.5730294493    -1.1534640952
   20      H      -4.4697332791     0.8857918705    -0.4756392548
   21      H      -1.7374975337     2.2067833525     0.5486001141
   22      H      -0.1397185213     2.7825165684     0.5047875214
 ----------------------------------------------------------------

    9    -541.6249246188      1.86e-06  Convergence criterion met
 Total energy in the final basis set =     -541.6249246188

                    Orbital Energies (a.u.)
 --------------------------------------------------------------

 Alpha MOs
 -- Occupied --
-24.6885 -14.3410 -10.2526 -10.2304 -10.1968 -10.1959 -10.1948 -10.1945
-10.1868 -10.1859 -10.1828 -10.1823  -1.1987  -0.9309  -0.8501  -0.8106
 -0.7758  -0.7275  -0.7194  -0.6413  -0.6213  -0.5808  -0.5563  -0.5382
 -0.5166  -0.5037  -0.4716  -0.4631  -0.4575  -0.4440  -0.4315  -0.4279
 -0.4032  -0.3908  -0.3778  -0.3679  -0.3637  -0.3339  -0.3076  -0.3039
 -0.2739  -0.2283  -0.1926

          Ground-State Mulliken Net Atomic Charges

     Atom                 Charge (a.u.)
  ----------------------------------------
      1 C                    -0.335556
      2 C                    -0.138117
      3 C                     0.147053
      4 C                    -0.275587
      5 C                     0.382745
      6 F                    -0.310725
      7 C                    -0.277132
      8 C                     0.138905
      9 C                    -0.146489
     10 C                    -0.361182
     11 C                     0.190664
     12 N                    -0.811941
     13 H                     0.142559
     14 H                     0.148961
     15 H                     0.121949
     16 H                     0.141680
     17 H                     0.139380
     18 H                     0.139500
     19 H                     0.169358
     20 H                     0.144292
     21 H                     0.326012
     22 H                     0.323669
  ----------------------------------------
  Sum of atomic charges =     0.000000

                    Cartesian Multipole Moments
 -----------------------------------------------------------------
    Charge (ESU x 10^10)
                 0.0000
    Dipole Moment (Debye)
         X      -0.8979      Y       2.4326      Z       1.0136
       Tot       2.7841
    Quadrupole Moments (Debye-Ang)
        XX     -61.8662     XY       2.3263     YY     -67.3602
        XZ      -1.9629     YZ       2.6340     ZZ     -71.3713

 Total job time:  27.59s(wall), 27.22s(cpu)
        *  Thank you very much for using Q-Chem.  Have a nice day.  *
