 Q-Chem 5.2, Q-Chem, Inc., Pleasanton, CA (2019)
 Q-Chem 5.2.1 for Intel X86 EM64T Linux

User input:
--------------------------------------------------------------
$molecule
0 1
C         2.19764798110000   -1.82958944400000    0.35167682640000
C         1.95706634530000   -0.75659674910000   -0.38814242770000
C         0.82070491160000    0.14378424220000   -0.23672301630000
C         1.00912222270000    1.54740087380000   -0.36768890100000
C        -0.10183002360000    2.27250086910000   -0.09666614460000
S        -1.43319330450000    1.27110944930000    0.31505104850000
C        -0.47544304480000   -0.17233120930000    0.11155744720000
C        -1.17607886410000   -1.42964258160000    0.23916655550000
C        -0.86458199870000   -2.56668111740000   -0.37336877220000
H         3.08644194530000   -2.42106202470000    0.21301680310000
H         1.51651930410000   -2.15420779080000    1.11988395470000
H         2.68284393820000   -0.43796335140000   -1.12724135110000
H         1.95434481010000    1.98602435860000   -0.63634268890000
H        -0.22657522720000    3.33699171080000   -0.11482268910000
H        -2.07201232000000   -1.37829986050000    0.84653560880000
H        -0.00595917880000   -2.65271328540000   -1.01614924600000
H        -1.46695131470000   -3.44932719410000   -0.24719148390000
$end

$rem
BASIS = 6-31G*
GUI = 2
METHOD = B3LYP
PRINT_ORBITALS false
MOLDEN_FORMAT false
--------------------------------------------------------------

             Standard Nuclear Orientation (Angstroms)
    I     Atom           X                Y                Z
 ----------------------------------------------------------------
    1      C       2.4953113066     1.1865635995     0.5708519839
    2      C       1.4442514371     1.4866568714    -0.1786428823
    3      C       0.1524790512     0.8122143639    -0.1414611285
    4      C      -1.0450488641     1.5737180151    -0.2354391887
    5      C      -2.1707754916     0.8378026784    -0.0785748886
    6      S      -1.8181493096    -0.8223956640     0.1748422543
    7      C      -0.1028486197    -0.5276678955     0.0604078788
    8      C       0.7514375584    -1.6925106791     0.0970540010
    9      C       1.9366287170    -1.8146286911    -0.4907347073
   10      H       3.4035913778     1.7625424583     0.5229271143
   11      H       2.4853966955     0.3566398278     1.2568430707
   12      H       1.4769222464     2.3515373816    -0.8309172851
   13      H      -1.0480074898     2.6379428473    -0.3949005065
   14      H      -3.1915047859     1.1645394750    -0.0982357971
   15      H       0.3163419852    -2.5456658918     0.6040530390
   16      H       2.3892663014    -1.0058610860    -1.0373749879
   17      H       2.4897720529    -2.7362339645    -0.4406371259
 ----------------------------------------------------------------

    9    -707.7928742275      4.14e-06  Convergence criterion met
 Total energy in the final basis set =     -707.7928742275

                    Orbital Energies (a.u.)
 --------------------------------------------------------------

 Alpha MOs
 -- Occupied --
-88.9048 -10.2163 -10.2105 -10.1956 -10.1947 -10.1911 -10.1887 -10.1773
-10.1771  -7.9668  -5.9307  -5.9270  -5.9240  -0.8881  -0.7931  -0.7852
 -0.7235  -0.7053  -0.6129  -0.5885  -0.5665  -0.5047  -0.4956  -0.4597
 -0.4542  -0.4261  -0.3983  -0.3842  -0.3802  -0.3675  -0.3602  -0.3369
 -0.2923  -0.2893  -0.2382  -0.2039

          Ground-State Mulliken Net Atomic Charges

     Atom                 Charge (a.u.)
  ----------------------------------------
      1 C                    -0.328020
      2 C                    -0.135233
      3 C                     0.156334
      4 C                    -0.125653
      5 C                    -0.349040
      6 S                     0.247786
      7 C                    -0.212328
      8 C                    -0.095616
      9 C                    -0.332884
     10 H                     0.140649
     11 H                     0.155748
     12 H                     0.131460
     13 H                     0.139960
     14 H                     0.171907
     15 H                     0.135878
     16 H                     0.157074
     17 H                     0.141978
  ----------------------------------------
  Sum of atomic charges =     0.000000

                    Cartesian Multipole Moments
 -----------------------------------------------------------------
    Charge (ESU x 10^10)
                 0.0000
    Dipole Moment (Debye)
         X       0.1452      Y       0.5997      Z      -0.1017
       Tot       0.6253
    Quadrupole Moments (Debye-Ang)
        XX     -54.7575     XY      -1.9267     YY     -55.5608
        XZ      -0.1888     YZ      -2.3989     ZZ     -62.6297

 Total job time:  17.09s(wall), 17.02s(cpu)
        *  Thank you very much for using Q-Chem.  Have a nice day.  *
