 Q-Chem 5.2, Q-Chem, Inc., Pleasanton, CA (2019)
 Q-Chem 5.2.1 for Intel X86 EM64T Linux

User input:
--------------------------------------------------------------
$molecule
0 1
C         3.55045682940000   -0.50148111830000   -0.07268623300000
C         2.31538749170000   -0.81009982240000   -0.44425003630000
C         1.12933601520000    0.01471206850000   -0.22402893760000
C         1.21718514750000    1.39453189770000   -0.08785797060000
C         0.08141360220000    2.16999923640000    0.12371681200000
N         0.18866005730000    3.53135841810000    0.33984519380000
C        -1.15620205600000    1.53781677790000    0.18587882800000
C        -1.28537452550000    0.16078976810000    0.02716413510000
C        -2.63046547840000   -0.41055410530000    0.08659597040000
C        -3.04117782860000   -1.51765134900000   -0.51712836620000
C        -0.12938258080000   -0.60319937720000   -0.17709149980000
O        -0.20306498580000   -1.98384107280000   -0.30971089960000
C        -0.07533945500000   -2.67154127570000    0.91418371600000
H         4.37810215260000   -1.16208762140000   -0.26769275320000
H         3.78548975370000    0.41098057720000    0.44959767390000
H         2.12067706390000   -1.75535214200000   -0.93444686090000
H         2.18044720680000    1.87704414850000   -0.15944842250000
H         1.02966105120000    3.96721745030000   -0.00280099910000
H        -0.64830490840000    4.07050878520000    0.18675722740000
H        -2.04444319940000    2.13377137700000    0.34461627510000
H        -3.33881684330000    0.17928690720000    0.65797389760000
H        -2.38056268970000   -2.11687142380000   -1.11789963270000
H        -4.06040423670000   -1.85658188140000   -0.42872527050000
H        -0.13211081880000   -3.73313825570000    0.67819484950000
H        -0.88587318480000   -2.40724708910000    1.60303949310000
H         0.88574373350000   -2.45372594430000    1.39500399880000
$end

$rem
BASIS = 6-31G*
GUI = 2
METHOD = B3LYP
PRINT_ORBITALS false
MOLDEN_FORMAT false
--------------------------------------------------------------

             Standard Nuclear Orientation (Angstroms)
    I     Atom           X                Y                Z
 ----------------------------------------------------------------
    1      C       2.3209273166     2.7255577420     0.0312795667
    2      C       1.1926048943     2.1419731366     0.4120931079
    3      C       0.8579187697     0.7320739216     0.2231500101
    4      C       1.8428410086    -0.2415892619     0.1132821257
    5      C       1.5127707262    -1.5810121504    -0.0686255972
    6      N       2.5001788755    -2.5298431952    -0.2590380342
    7      C       0.1687539672    -1.9350293440    -0.1278039080
    8      C      -0.8452230018    -0.9904412364     0.0051745851
    9      C      -2.2289134509    -1.4613251056    -0.0487212316
   10      C      -3.2748861158    -0.8951962114     0.5380251154
   11      C      -0.4923962567     0.3537155744     0.1797395034
   12      O      -1.4672836135     1.3373419949     0.2858630178
   13      C      -1.8252307858     1.9069196417    -0.9529341958
   14      H       2.4976865136     3.7737825734     0.2027618250
   15      H       3.1059142510     2.1894921478    -0.4757080980
   16      H       0.4159865493     2.7285975487     0.8858470213
   17      H       2.8824823041     0.0415926306     0.1823549301
   18      H       3.4164980007    -2.2870017521     0.0816223179
   19      H       2.2342416136    -3.4856426782    -0.0848137001
   20      H      -0.0964036791    -2.9745466171    -0.2635501845
   21      H      -2.3623495393    -2.3860565749    -0.5993693334
   22      H      -3.1834208635     0.0054260466     1.1184704878
   23      H      -4.2605971811    -1.3231058017     0.4556930899
   24      H      -2.5754409559     2.6662691657    -0.7373538585
   25      H      -2.2512324438     1.1542121464    -1.6262043047
   26      H      -0.9613502193     2.3732673330    -1.4413425863
 ----------------------------------------------------------------

    8    -556.9121710645      8.73e-06  Convergence criterion met
 Total energy in the final basis set =     -556.9121710645

                    Orbital Energies (a.u.)
 --------------------------------------------------------------

 Alpha MOs
 -- Occupied --
-19.1533 -14.3384 -10.2236 -10.2217 -10.2212 -10.1891 -10.1876 -10.1821
-10.1817 -10.1768 -10.1754 -10.1738 -10.1685  -1.0429  -0.9208  -0.8440
 -0.7987  -0.7598  -0.7263  -0.7163  -0.6725  -0.6311  -0.6040  -0.5698
 -0.5417  -0.5232  -0.5097  -0.4918  -0.4657  -0.4580  -0.4443  -0.4427
 -0.4306  -0.4198  -0.4051  -0.3916  -0.3808  -0.3663  -0.3590  -0.3392
 -0.3293  -0.3138  -0.3009  -0.2604  -0.2486  -0.2156  -0.1917

          Ground-State Mulliken Net Atomic Charges

     Atom                 Charge (a.u.)
  ----------------------------------------
      1 C                    -0.348407
      2 C                    -0.120645
      3 C                     0.150337
      4 C                    -0.264692
      5 C                     0.360474
      6 N                    -0.807173
      7 C                    -0.273709
      8 C                     0.170897
      9 C                    -0.139536
     10 C                    -0.339400
     11 C                     0.170064
     12 O                    -0.526184
     13 C                    -0.206434
     14 H                     0.141013
     15 H                     0.138961
     16 H                     0.148985
     17 H                     0.114542
     18 H                     0.322243
     19 H                     0.321691
     20 H                     0.113540
     21 H                     0.125305
     22 H                     0.169685
     23 H                     0.133247
     24 H                     0.153155
     25 H                     0.146764
     26 H                     0.145276
  ----------------------------------------
  Sum of atomic charges =     0.000000

                    Cartesian Multipole Moments
 -----------------------------------------------------------------
    Charge (ESU x 10^10)
                 0.0000
    Dipole Moment (Debye)
         X       1.2092      Y      -1.2661      Z      -0.3323
       Tot       1.7820
    Quadrupole Moments (Debye-Ang)
        XX     -67.6514     XY      -4.2207     YY     -66.0340
        XZ       3.8154     YZ      -2.4299     ZZ     -80.5957

 Total job time:  33.83s(wall), 33.72s(cpu)
        *  Thank you very much for using Q-Chem.  Have a nice day.  *
