 Q-Chem 5.2, Q-Chem, Inc., Pleasanton, CA (2019)
 Q-Chem 5.2.1 for Intel X86 EM64T Linux

User input:
--------------------------------------------------------------
$molecule
0 1
C         1.54848449690000    3.78837137590000   -0.03957263630000
C         2.11001803180000    2.58787511300000    0.03233289590000
C         1.41890026930000    1.30326426630000    0.01717916300000
C         2.17229756110000    0.13040137470000    0.00794690270000
C         1.58777184710000   -1.13412398800000   -0.00870253440000
C         2.44971260590000   -2.31104056290000   -0.01767468710000
C         2.05824945720000   -3.57915194020000    0.00617258670000
C         0.19510206080000   -1.22012242020000   -0.01572160000000
C        -0.56162469820000   -0.06103026830000   -0.00481780160000
C        -2.06226120140000   -0.12712842150000   -0.00105842680000
F        -2.54615275130000   -1.37170929070000   -0.11288947700000
F        -2.58935837590000    0.38177965340000    1.13047931070000
F        -2.60608861520000    0.58207076430000   -1.00857386070000
C         0.02942038800000    1.19342692310000    0.01317466470000
H         2.14507129700000    4.68404701750000   -0.02355287440000
H         0.48529606910000    3.93400439640000   -0.12087187920000
H         3.18815380780000    2.51536239980000    0.10396489890000
H         3.25117625650000    0.20513050270000    0.01265444270000
H         3.50941537940000   -2.08908566780000   -0.04288009250000
H         1.02337534220000   -3.87316855760000    0.03596591730000
H         2.77427049910000   -4.38268835380000   -0.00202335440000
H        -0.29782075540000   -2.17819280030000   -0.03130537990000
H        -0.59649723220000    2.07107824630000    0.02610643220000
$end

$rem
BASIS = 6-31G*
GUI = 2
METHOD = B3LYP
PRINT_ORBITALS false
MOLDEN_FORMAT false
--------------------------------------------------------------

             Standard Nuclear Orientation (Angstroms)
    I     Atom           X                Y                Z
 ----------------------------------------------------------------
    1      C      -1.1289488173    -3.8847876512    -0.0383700828
    2      C      -1.7846682324    -2.7329998636     0.0330339403
    3      C      -1.1984501088    -1.3972572272     0.0175954885
    4      C      -2.0431923704    -0.2883770316     0.0078333375
    5      C      -1.5616192138     1.0188230121    -0.0091150437
    6      C      -2.5148816766     2.1230670774    -0.0186395754
    7      C      -2.2260488178     3.4184208658     0.0048699357
    8      C      -0.1802795289     1.2158735071    -0.0158906382
    9      C       0.6666803496     0.1209866544    -0.0044607967
   10      C       2.1572296671     0.3068347142    -0.0004304012
   11      F       2.5401060579     1.5860799413    -0.1125734982
   12      F       2.7230723740    -0.1579580722     1.1313762113
   13      F       2.7562318389    -0.3569336880    -1.0076081398
   14      C       0.1778035438    -1.1766981793     0.0138260547
   15      H      -1.6520299958    -4.8252827714    -0.0221741734
   16      H      -0.0575031625    -3.9449889372    -0.1194144565
   17      H      -2.8651660649    -2.7468827562     0.1044320371
   18      H      -3.1126455463    -0.4491106708     0.0123549119
   19      H      -3.5534445459     1.8171024886    -0.0439791298
   20      H      -1.2179967395     3.7942331839     0.0347690426
   21      H      -3.0040108880     4.1621447168    -0.0037280078
   22      H       0.2344815202     2.2102769594    -0.0316911533
   23      H       0.8718742182    -2.0015011107     0.0271664569
 ----------------------------------------------------------------

    9    -724.0832717809      3.33e-06  Convergence criterion met
 Total energy in the final basis set =     -724.0832717809

                    Orbital Energies (a.u.)
 --------------------------------------------------------------

 Alpha MOs
 -- Occupied --
-24.7236 -24.7163 -24.7148 -10.4271 -10.2160 -10.2108 -10.2104 -10.2052
-10.2051 -10.2023 -10.2003 -10.2002 -10.1902 -10.1901  -1.3025  -1.2133
 -1.2067  -0.8874  -0.8178  -0.8080  -0.7594  -0.7340  -0.6980  -0.6545
 -0.6270  -0.6050  -0.5810  -0.5761  -0.5498  -0.5447  -0.5119  -0.4975
 -0.4684  -0.4630  -0.4539  -0.4506  -0.4372  -0.4202  -0.4164  -0.4105
 -0.4016  -0.3934  -0.3914  -0.3885  -0.3737  -0.3580  -0.3478  -0.3298
 -0.2994  -0.2484  -0.2313

          Ground-State Mulliken Net Atomic Charges

     Atom                 Charge (a.u.)
  ----------------------------------------
      1 C                    -0.349648
      2 C                    -0.110377
      3 C                     0.179197
      4 C                    -0.266176
      5 C                     0.181148
      6 C                    -0.111489
      7 C                    -0.350207
      8 C                    -0.225401
      9 C                    -0.003192
     10 C                     0.778686
     11 F                    -0.266978
     12 F                    -0.266627
     13 F                    -0.268039
     14 C                    -0.219923
     15 H                     0.150488
     16 H                     0.150008
     17 H                     0.131163
     18 H                     0.133893
     19 H                     0.131123
     20 H                     0.149680
     21 H                     0.150264
     22 H                     0.151005
     23 H                     0.151400
  ----------------------------------------
  Sum of atomic charges =     0.000000

                    Cartesian Multipole Moments
 -----------------------------------------------------------------
    Charge (ESU x 10^10)
                 0.0000
    Dipole Moment (Debye)
         X      -2.6402      Y      -0.3043      Z      -0.0202
       Tot       2.6577
    Quadrupole Moments (Debye-Ang)
        XX     -77.2585     XY      -0.8335     YY     -69.7142
        XZ      -0.1840     YZ       0.0196     ZZ     -83.2590

 Total job time:  33.09s(wall), 32.98s(cpu)
        *  Thank you very much for using Q-Chem.  Have a nice day.  *
