 Q-Chem 5.2, Q-Chem, Inc., Pleasanton, CA (2019)
 Q-Chem 5.2.1 for Intel X86 EM64T Linux

User input:
--------------------------------------------------------------
$molecule
0 1
C         3.67948796640000    0.76540588290000    2.70376191540000
C         3.62402052980000    0.16552866360000    1.52069451990000
C         2.44993127180000    0.10506515580000    0.67583262130000
C         1.14309410520000    0.18472565180000    1.08182959680000
N         0.29968516950000   -0.01335650840000    0.02485875500000
Si       -1.47279764640000   -0.02247394920000   -0.00518348370000
C        -2.22967019250000   -0.01465719800000    1.76683215160000
C        -1.79330867300000   -1.20175620080000    2.62498660350000
C        -2.00585646720000    1.29471118150000    2.52335496250000
C        -2.00471256170000    1.62318537230000   -0.85770355610000
C        -1.34651589760000    1.87696808080000   -2.21304777150000
C        -3.52373167480000    1.74232775670000   -0.98118392510000
C        -2.00542377110000   -1.67998258700000   -0.84664370460000
C        -2.24846536730000   -1.58322951930000   -2.35229880230000
C        -1.00011333550000   -2.80325472720000   -0.57834572750000
C         1.08710584760000   -0.22593336640000   -1.07455912220000
C         2.41294140320000   -0.15448323080000   -0.73585559700000
C         3.51037045790000   -0.27936293940000   -1.67245755090000
C         4.71064240160000    0.27308270690000   -1.54346137720000
H         4.57429570250000    0.75565958930000    3.30244994780000
H         2.83618256850000    1.29572072010000    3.11317109240000
H         4.49841987340000   -0.34159942310000    1.13343146010000
H         0.75997193600000    0.33971017980000    2.06843446630000
H        -3.31300320470000   -0.11346048620000    1.62886031110000
H        -0.71424920860000   -1.22618111990000    2.75046769470000
H        -2.10638103120000   -2.13901075790000    2.17319694960000
H        -2.24712824810000   -1.13881158260000    3.61358336150000
H        -0.94857589770000    1.48996994740000    2.67745997350000
H        -2.48511827900000    1.25056443780000    3.50087540430000
H        -2.42854590030000    2.13566299460000    1.98064014940000
H        -1.66933480220000    2.43283137940000   -0.19854594680000
H        -1.64892060970000    1.13217325360000   -2.94351041990000
H        -0.26344168850000    1.85900467100000   -2.12461344310000
H        -1.63801415340000    2.85564826240000   -2.59253503220000
H        -3.92200836810000    0.97444765490000   -1.63930516370000
H        -3.79609993810000    2.71259520000000   -1.39407414060000
H        -4.00421061750000    1.63894271490000   -0.01197677060000
H        -2.95726763130000   -1.97726738570000   -0.39148480720000
H        -1.33568634710000   -1.31401543150000   -2.87752395440000
H        -3.01155340060000   -0.84526323760000   -2.58300726860000
H        -2.58297730710000   -2.54486510510000   -2.74004779040000
H        -0.05056260540000   -2.59158198460000   -1.06322681770000
H        -1.37812998700000   -3.74718997010000   -0.96867275990000
H        -0.81120972070000   -2.92418346140000    0.48432104800000
H         0.65042444100000   -0.39100438070000   -2.03913422060000
H         3.27918019240000   -0.85128075860000   -2.56433333930000
H         4.96886722880000    0.89126667340000   -0.70116393500000
H         5.47366889210000    0.14063315010000   -2.29210922040000
$end

$rem
BASIS = 6-31G*
GUI = 2
METHOD = B3LYP
PRINT_ORBITALS false
MOLDEN_FORMAT false
--------------------------------------------------------------

             Standard Nuclear Orientation (Angstroms)
    I     Atom           X                Y                Z
 ----------------------------------------------------------------
    1      C       3.9202389385    -2.5090282427     0.4202337519
    2      C       3.7760332804    -1.2677939467    -0.0282302131
    3      C       2.5450825443    -0.5071620621     0.0179484683
    4      C       1.2707665609    -1.0113505613     0.0482048834
    5      N       0.3534328107    -0.0003583704    -0.0162630625
    6      Si     -1.4168006239    -0.0949327162    -0.0194688058
    7      C      -2.0475224318    -1.9034089086    -0.2305622133
    8      C      -1.5639406748    -2.5751844867    -1.5154399267
    9      C      -1.7582180181    -2.7982405225     0.9746117324
   10      C      -1.9907350577     0.5078171626     1.7198443928
   11      C      -1.4266382978     1.8645489432     2.1389627233
   12      C      -3.5134110070     0.5078103273     1.8551933069
   13      C      -2.0235616573     0.9051523471    -1.5591933561
   14      C      -2.3705396068     2.3662940884    -1.2761761107
   15      C      -1.0131567506     0.8495924628    -2.7082661132
   16      C       1.0597197220     1.1698524763    -0.0917964112
   17      C       2.4066763395     0.9195985458    -0.0644841190
   18      C       3.4344767809     1.9397517677    -0.0735587009
   19      C       4.6462790230     1.8287208456     0.4571920920
   20      H       4.8546587320    -3.0370817941     0.3352494513
   21      H       3.1130188099    -3.0394995436     0.8966889520
   22      H       4.6160521569    -0.7599087560    -0.4844611918
   23      H       0.9592852714    -2.0341673528     0.0800982388
   24      H      -3.1387907311    -1.8312967371    -0.3101993124
   25      H      -0.4790375777    -2.6200024285    -1.5565255775
   26      H      -1.9172201448    -2.0342956101    -2.3890571981
   27      H      -1.9467189911    -3.5935982267    -1.5750385541
   28      H      -0.6908458022    -2.9000887480     1.1479900306
   29      H      -2.1682173305    -3.7942529480     0.8101524810
   30      H      -2.2095042822    -2.3949303254     1.8768795806
   31      H      -1.6019454378    -0.2209718479     2.4410952937
   32      H      -1.7868885208     2.6582325773     1.4908657467
   33      H      -0.3402622486     1.8558853609     2.1088781915
   34      H      -1.7342527125     2.0985545364     3.1574967022
   35      H      -3.9644532904     1.2259591850     1.1753324266
   36      H      -3.8043679040     0.7772720545     2.8694990666
   37      H      -3.9257968360    -0.4727367680     1.6329854953
   38      H      -2.9440831540     0.4240232487    -1.9094926172
   39      H      -1.4941744162     2.9174804511    -0.9449950853
   40      H      -3.1405322948     2.4494205865    -0.5143853117
   41      H      -2.7409599949     2.8452919973    -2.1819024794
   42      H      -0.0978579321     1.3705616287    -2.4392292912
   43      H      -1.4269771419     1.3258752414    -3.5960571485
   44      H      -0.7514643134    -0.1739208098    -2.9602713898
   45      H       0.5548968110     2.1140941001    -0.1354518283
   46      H       3.1356727820     2.8768716312    -0.5301809566
   47      H       4.9690362674     0.9368676488     0.9658394114
   48      H       5.3536111590     2.6401068505     0.4176964725
 ----------------------------------------------------------------

    8   -1009.5118954919      8.62e-06  Convergence criterion met
 Total energy in the final basis set =    -1009.5118954919

                    Orbital Energies (a.u.)
 --------------------------------------------------------------

 Alpha MOs
 -- Occupied --
-66.1434 -14.3576 -10.1964 -10.1960 -10.1826 -10.1818 -10.1796 -10.1789
-10.1788 -10.1786 -10.1780 -10.1767 -10.1755 -10.1718 -10.1717 -10.1695
-10.1673 -10.1638 -10.1621  -5.2861  -3.6468  -3.6444  -3.6436  -0.9671
 -0.8073  -0.7939  -0.7837  -0.7814  -0.7699  -0.7214  -0.7070  -0.6901
 -0.6869  -0.6839  -0.6158  -0.6070  -0.5859  -0.5769  -0.5738  -0.5538
 -0.5203  -0.5168  -0.4755  -0.4603  -0.4590  -0.4550  -0.4471  -0.4439
 -0.4351  -0.4275  -0.4196  -0.4170  -0.4084  -0.4066  -0.4020  -0.3995
 -0.3976  -0.3891  -0.3868  -0.3801  -0.3740  -0.3569  -0.3482  -0.3452
 -0.3411  -0.3390  -0.3367  -0.3352  -0.3325  -0.3227  -0.2993  -0.2765
 -0.2721  -0.2692  -0.2021  -0.1951

          Ground-State Mulliken Net Atomic Charges

     Atom                 Charge (a.u.)
  ----------------------------------------
      1 C                    -0.361195
      2 C                    -0.110757
      3 C                     0.039893
      4 C                    -0.046130
      5 N                    -0.513027
      6 Si                    0.899634
      7 C                    -0.294110
      8 C                    -0.462885
      9 C                    -0.463863
     10 C                    -0.278627
     11 C                    -0.468917
     12 C                    -0.467289
     13 C                    -0.291281
     14 C                    -0.462652
     15 C                    -0.457968
     16 C                    -0.053329
     17 C                     0.043702
     18 C                    -0.111794
     19 C                    -0.361594
     20 H                     0.133454
     21 H                     0.128428
     22 H                     0.135379
     23 H                     0.147022
     24 H                     0.146440
     25 H                     0.157906
     26 H                     0.151291
     27 H                     0.140758
     28 H                     0.154835
     29 H                     0.142302
     30 H                     0.151276
     31 H                     0.151638
     32 H                     0.144141
     33 H                     0.165860
     34 H                     0.139656
     35 H                     0.150620
     36 H                     0.145127
     37 H                     0.148581
     38 H                     0.140660
     39 H                     0.149616
     40 H                     0.151101
     41 H                     0.142635
     42 H                     0.159361
     43 H                     0.137350
     44 H                     0.155920
     45 H                     0.148723
     46 H                     0.120143
     47 H                     0.148294
     48 H                     0.133674
  ----------------------------------------
  Sum of atomic charges =     0.000000

                    Cartesian Multipole Moments
 -----------------------------------------------------------------
    Charge (ESU x 10^10)
                 0.0000
    Dipole Moment (Debye)
         X      -3.0066      Y       0.0180      Z      -0.2031
       Tot       3.0135
    Quadrupole Moments (Debye-Ang)
        XX    -126.9874     XY       1.2132     YY    -123.1262
        XZ      -0.0561     YZ      -1.7660     ZZ    -128.7046

 Total job time:  112.41s(wall), 111.20s(cpu)
        *  Thank you very much for using Q-Chem.  Have a nice day.  *
