 Q-Chem 5.2, Q-Chem, Inc., Pleasanton, CA (2019)
 Q-Chem 5.2.1 for Intel X86 EM64T Linux

User input:
--------------------------------------------------------------
$molecule
0 1
C        -3.75370719250000    1.11814233680000    0.03401214360000
C        -3.11874635710000   -0.04638422830000   -0.02827416930000
C        -1.67631757110000   -0.24195612320000   -0.02242688480000
C        -1.16090981800000   -1.54604919050000    0.02579296130000
N         0.11987858590000   -1.82803393250000    0.03034925410000
C         0.99420763430000   -0.82570539640000   -0.01161190110000
C         2.36648558100000   -1.18962656260000    0.00019044420000
N         3.47845722570000   -1.46809930670000    0.00658281750000
C         0.61621650350000    0.53233671500000   -0.06094262620000
C         1.63407644550000    1.57450703840000   -0.10759807080000
C         1.43596297010000    2.85458544790000    0.18292663330000
C        -0.75055467860000    0.79759676130000   -0.07301946600000
H        -4.82866306390000    1.16817873980000    0.02919674800000
H        -3.23981637670000    2.06227498270000    0.09703961740000
H        -3.69427567290000   -0.96232971030000   -0.07795272500000
H        -1.82402395820000   -2.40114782670000    0.05841093890000
H         2.62541907300000    1.23335551730000   -0.37751919360000
H         0.47947703210000    3.24153568220000    0.49237811770000
H         2.24068181100000    3.56721409690000    0.13628105940000
H        -1.08891717550000    1.81934985790000   -0.14473282260000
$end

$rem
BASIS = 6-31G*
GUI = 2
METHOD = B3LYP
PRINT_ORBITALS false
MOLDEN_FORMAT false
--------------------------------------------------------------

             Standard Nuclear Orientation (Angstroms)
    I     Atom           X                Y                Z
 ----------------------------------------------------------------
    1      C       3.7968623157    -0.6140995918     0.0202741817
    2      C       3.0283167785     0.4677783160    -0.0250570210
    3      C       1.5728812039     0.4909214532    -0.0176379331
    4      C       0.9065990577     1.7238679467     0.0497421789
    5      N      -0.3985770922     1.8519803065     0.0573271052
    6      C      -1.1479943489     0.7538473315    -0.0005716178
    7      C      -2.5537194224     0.9523577736     0.0154063601
    8      N      -3.6908507886     1.0969618100     0.0249352011
    9      C      -0.6117678620    -0.5489301294    -0.0700067223
   10      C      -1.4989868092    -1.7035583978    -0.1333366240
   11      C      -1.1503243947    -2.9553726303     0.1380485916
   12      C       0.7767967637    -0.6501344696    -0.0847772457
   13      H       4.8701682650    -0.5363136918     0.0157301771
   14      H       3.3985345256    -1.6133217284     0.0685730378
   15      H       3.4912003254     1.4461185278    -0.0603745832
   16      H       1.4637301946     2.6509355523     0.0958781073
   17      H      -2.5239992863    -1.4782620133    -0.3990299418
   18      H      -0.1544621950    -3.2308666828     0.4425441758
   19      H      -1.8649580824    -3.7575603573     0.0798991564
   20      H       1.2338017252    -1.6233900331    -0.1715611639
 ----------------------------------------------------------------

    9    -495.3205768932      5.44e-06  Convergence criterion met
 Total energy in the final basis set =     -495.3205768932

                    Orbital Energies (a.u.)
 --------------------------------------------------------------

 Alpha MOs
 -- Occupied --
-14.3526 -14.3359 -10.2661 -10.2403 -10.2336 -10.2287 -10.2258 -10.2250
-10.2152 -10.2114 -10.2065 -10.2041  -0.9794  -0.9106  -0.8552  -0.8373
 -0.7731  -0.7692  -0.6903  -0.6711  -0.5999  -0.5884  -0.5735  -0.5318
 -0.5057  -0.4785  -0.4597  -0.4428  -0.4349  -0.4312  -0.4252  -0.3902
 -0.3736  -0.3684  -0.3612  -0.3410  -0.3358  -0.3267  -0.2777  -0.2664
 -0.2481

          Ground-State Mulliken Net Atomic Charges

     Atom                 Charge (a.u.)
  ----------------------------------------
      1 C                    -0.340722
      2 C                    -0.119843
      3 C                     0.159868
      4 C                    -0.011327
      5 N                    -0.455746
      6 C                     0.229826
      7 C                     0.295812
      8 N                    -0.480968
      9 C                     0.174710
     10 C                    -0.130442
     11 C                    -0.337639
     12 C                    -0.213998
     13 H                     0.159063
     14 H                     0.149942
     15 H                     0.142941
     16 H                     0.153175
     17 H                     0.167612
     18 H                     0.148442
     19 H                     0.161525
     20 H                     0.147770
  ----------------------------------------
  Sum of atomic charges =     0.000000

                    Cartesian Multipole Moments
 -----------------------------------------------------------------
    Charge (ESU x 10^10)
                 0.0000
    Dipole Moment (Debye)
         X       5.1717      Y      -2.9913      Z      -0.1233
       Tot       5.9757
    Quadrupole Moments (Debye-Ang)
        XX     -76.1019     XY       8.2677     YY     -65.4402
        XZ       0.8157     YZ      -0.4486     ZZ     -71.1409

 Total job time:  25.10s(wall), 24.66s(cpu)
        *  Thank you very much for using Q-Chem.  Have a nice day.  *
