 Q-Chem 5.2, Q-Chem, Inc., Pleasanton, CA (2019)
 Q-Chem 5.2.1 for Intel X86 EM64T Linux

User input:
--------------------------------------------------------------
$molecule
0 1
C        -0.15255002620000    2.97341735630000    0.38708476730000
C        -0.51541474800000    1.92822343710000   -0.34263703750000
C         0.04055241270000    0.58882222400000   -0.20868471280000
C        -0.71305165230000   -0.55410765540000   -0.27629281380000
C        -2.13973698880000   -0.71864988150000   -0.40329051400000
C        -3.08298029790000    0.08405075390000    0.07167007930000
F        -2.92674276170000    1.18400462170000    0.79567823750000
F        -4.38323529300000   -0.14164420490000   -0.10397773540000
S         0.24779644330000   -2.01631143080000   -0.17507510620000
C         1.70479991250000   -1.08032807080000   -0.03361085920000
C         2.99264630770000   -1.57990158250000    0.08870185590000
C         4.03918047200000   -0.68426755640000    0.15203870290000
C         3.80400856470000    0.68827011570000    0.07608438960000
C         2.52504481010000    1.18362401290000   -0.04237987050000
C         1.44180867440000    0.30191687740000   -0.07720693560000
H        -0.59644075030000    3.94208773160000    0.23691700260000
H         0.56918805090000    2.89243319940000    1.18196373370000
H        -1.28982387840000    2.03303932890000   -1.09318025590000
H        -2.48514319650000   -1.61356145830000   -0.90101498520000
H         3.16199953920000   -2.64474597590000    0.12579462390000
H         5.05046342210000   -1.04916044630000    0.24795461800000
H         4.64041679720000    1.37042989440000    0.10611398790000
H         2.35171766160000    2.24527114680000   -0.12215541560000
$end

$rem
BASIS = 6-31G*
GUI = 2
METHOD = B3LYP
PRINT_ORBITALS false
MOLDEN_FORMAT false
--------------------------------------------------------------

             Standard Nuclear Orientation (Angstroms)
    I     Atom           X                Y                Z
 ----------------------------------------------------------------
    1      C       0.5596161430     2.9257566926    -0.1239920715
    2      C       0.8018430075     1.7850136458     0.5057908234
    3      C       0.1016402379     0.5329596653     0.2545633762
    4      C       0.7239250703    -0.6876419135     0.2136729788
    5      C       2.1231570836    -1.0196740224     0.3163280373
    6      C       3.1512145191    -0.2863766950    -0.0898698877
    7      F       3.1203808900     0.8852114347    -0.7102947694
    8      F       4.4178423910    -0.6693742544     0.0564862708
    9      S      -0.3923803209    -2.0194631035    -0.0135462090
   10      C      -1.7363524919    -0.9192516437    -0.0605530154
   11      C      -3.0710806801    -1.2602812732    -0.2195558048
   12      C      -4.0118677544    -0.2524513250    -0.1949773913
   13      C      -3.6266018651     1.0731098711     0.0034974304
   14      C      -2.3011537981     1.4112938955     0.1583410205
   15      C      -1.3222407007     0.4157777199     0.1064024533
   16      H       1.1073591086     3.8218027222     0.1105090691
   17      H      -0.1636070873     2.9974583170    -0.9184125477
   18      H       1.5802193860     1.7350995828     1.2578877552
   19      H       2.3655436994    -1.9887069879     0.7287909668
   20      H      -3.3570440137    -2.2921081328    -0.3518746476
   21      H      -5.0569344563    -0.4931406890    -0.3172234859
   22      H      -4.3822958522     1.8434166553     0.0405990210
   23      H      -2.0117578054     2.4356458618     0.3328520044
 ----------------------------------------------------------------

    9   -1059.9146459255      5.07e-06  Convergence criterion met
 Total energy in the final basis set =    -1059.9146459255

                    Orbital Energies (a.u.)
 --------------------------------------------------------------

 Alpha MOs
 -- Occupied --
-88.9053 -24.7452 -24.7405 -10.3655 -10.2319 -10.2196 -10.2145 -10.2010
-10.1987 -10.1953 -10.1952 -10.1899 -10.1886 -10.1869 -10.1819  -7.9671
 -5.9313  -5.9278  -5.9235  -1.2893  -1.2287  -0.9026  -0.8450  -0.8020
 -0.8000  -0.7555  -0.7267  -0.7077  -0.6537  -0.6140  -0.6043  -0.5895
 -0.5735  -0.5604  -0.5257  -0.5188  -0.4948  -0.4784  -0.4610  -0.4535
 -0.4459  -0.4439  -0.4319  -0.4255  -0.4164  -0.4035  -0.4001  -0.3834
 -0.3658  -0.3472  -0.3403  -0.3353  -0.2992  -0.2835  -0.2628  -0.2284
 -0.2059

          Ground-State Mulliken Net Atomic Charges

     Atom                 Charge (a.u.)
  ----------------------------------------
      1 C                    -0.340368
      2 C                    -0.119765
      3 C                     0.114754
      4 C                    -0.191826
      5 C                    -0.292674
      6 C                     0.564093
      7 F                    -0.223355
      8 F                    -0.243270
      9 S                     0.223175
     10 C                    -0.137595
     11 C                    -0.180223
     12 C                    -0.115819
     13 C                    -0.145781
     14 C                    -0.175367
     15 C                     0.115347
     16 H                     0.145037
     17 H                     0.152083
     18 H                     0.139197
     19 H                     0.175609
     20 H                     0.139260
     21 H                     0.130253
     22 H                     0.129475
     23 H                     0.137760
  ----------------------------------------
  Sum of atomic charges =     0.000000

                    Cartesian Multipole Moments
 -----------------------------------------------------------------
    Charge (ESU x 10^10)
                 0.0000
    Dipole Moment (Debye)
         X      -0.6448      Y       0.2048      Z       0.3505
       Tot       0.7620
    Quadrupole Moments (Debye-Ang)
        XX     -86.0201     XY      -0.4976     YY     -84.8431
        XZ       2.7383     YZ       0.1775     ZZ     -93.4402

 Total job time:  43.38s(wall), 42.89s(cpu)
        *  Thank you very much for using Q-Chem.  Have a nice day.  *
