 Q-Chem 5.2, Q-Chem, Inc., Pleasanton, CA (2019)
 Q-Chem 5.2.1 for Intel X86 EM64T Linux

User input:
--------------------------------------------------------------
$molecule
0 1
C         4.04495670720000   -3.67507009270000    3.51631945510000
C         4.57734901400000   -2.79219889680000    2.67434929160000
C         3.84224127570000   -1.80792840090000    1.92714846560000
C         2.49574839740000   -1.54865924030000    1.89012925220000
C         2.13663065570000   -0.49026462740000    1.03709147160000
C         0.71625443200000   -0.07238433480000    0.81704311520000
C         0.14969543190000   -0.72806570300000   -0.44865529080000
C        -1.32831629980000   -0.41268118320000   -0.67477087240000
C        -1.58747010230000    1.06173763490000   -0.98101784510000
C        -3.01332819500000    1.32859541990000   -1.46451924440000
C        -4.06995510290000    1.04024516240000   -0.39910406240000
C        -5.45908164740000    1.55232981880000   -0.78129769270000
C        -6.04753246630000    0.83464082380000   -1.99490560480000
C        -7.51947235440000    1.17170514280000   -2.23548122610000
C        -7.74316019140000    2.62616920030000   -2.63299811180000
C         3.22505234870000    0.06925317260000    0.39934830370000
C         3.23375799210000    1.15678199650000   -0.53862228100000
C         4.31452654210000    1.61564731010000   -1.16498051160000
S         4.69916018660000   -0.72260324710000    0.87560709040000
H         4.65789489660000   -4.38447418630000    4.04344410770000
H         2.98683826340000   -3.71947536500000    3.70721763910000
H         5.64752622520000   -2.78181217960000    2.51219188430000
H         1.77533162830000   -2.10227691020000    2.46563860410000
H         0.65545911020000    1.01312958110000    0.73077576930000
H         0.11682975400000   -0.37833377310000    1.67698668650000
H         0.27274703770000   -1.81065570350000   -0.36182346290000
H         0.73116913290000   -0.40059829740000   -1.31374779700000
H        -1.89528391160000   -0.71077299990000    0.20891608180000
H        -1.68389304450000   -1.01230932840000   -1.51648257160000
H        -0.89030344700000    1.38622396520000   -1.75828905630000
H        -1.39845091570000    1.66434591800000   -0.09035293070000
H        -3.20747269320000    0.72048394160000   -2.34978459150000
H        -3.08981716990000    2.37861049540000   -1.75867622480000
H        -3.76669097850000    1.52134078890000    0.53460779840000
H        -4.12535015840000   -0.03454548750000   -0.21670055270000
H        -5.39907880200000    2.62392309940000   -0.97954203150000
H        -6.12985837070000    1.40829732430000    0.06986789490000
H        -5.95746064100000   -0.24394124900000   -1.84138564580000
H        -5.47601033190000    1.09244596680000   -2.88825434820000
H        -8.09309514920000    0.95078753150000   -1.33215081910000
H        -7.89831122490000    0.52658060110000   -3.03214955940000
H        -7.47047452330000    3.29802648180000   -1.82347210630000
H        -8.79023459460000    2.79516272230000   -2.87461609960000
H        -7.14526106140000    2.87762785790000   -3.50655977720000
H         2.26937276540000    1.61037112320000   -0.72616633950000
H         5.28629568280000    1.17942548660000   -1.00223156680000
H         4.26078155960000    2.43656308700000   -1.85782304980000
$end

$rem
BASIS = 6-31G*
GUI = 2
METHOD = B3LYP
PRINT_ORBITALS false
MOLDEN_FORMAT false
--------------------------------------------------------------

             Standard Nuclear Orientation (Angstroms)
    I     Atom           X                Y                Z
 ----------------------------------------------------------------
    1      C       5.8915930312    -3.1014278402     0.0036081793
    2      C       5.9058871519    -1.7735269359    -0.0874508094
    3      C       4.7561257990    -0.9191457357     0.0372988065
    4      C       3.4399183986    -1.2335844246     0.2617099944
    5      C       2.5857542865    -0.1189923881     0.3318984967
    6      C       1.1067068812    -0.2418432324     0.5264242741
    7      C       0.3776609382    -0.1870223507    -0.8220512711
    8      C      -1.1300024192    -0.4016349064    -0.6955325673
    9      C      -1.8363950778     0.7278532759     0.0528821645
   10      C      -3.3600099604     0.6495464967    -0.0497030151
   11      C      -3.9424292797    -0.5884075597     0.6307183942
   12      C      -5.4649155625    -0.5371180486     0.7625521068
   13      C      -6.1827932188    -0.5654408406    -0.5857970743
   14      C      -7.6947040654    -0.7537928957    -0.4563941600
   15      C      -8.3904344914     0.4286375708     0.2079393282
   16      C       3.2549362959     1.0740365637     0.1493727258
   17      C       2.7065628960     2.4013887804     0.1518739170
   18      C       3.3978234639     3.5130838596    -0.0873655988
   19      S       4.9550723147     0.8012239873    -0.0995524736
   20      H       6.7933628659    -3.6783832037    -0.1000328605
   21      H       4.9859970982    -3.6541189940     0.1837666668
   22      H       6.8398045943    -1.2572354610    -0.2688991374
   23      H       3.0893698469    -2.2436262618     0.3784792527
   24      H       0.7475456455     0.5585014984     1.1744444176
   25      H       0.8885128009    -1.1951815836     1.0121765574
   26      H       0.7935241187    -0.9615337437    -1.4715683921
   27      H       0.5723073993     0.7777173277    -1.2965212059
   28      H      -1.3132991484    -1.3507230772    -0.1887312354
   29      H      -1.5534894805    -0.4735246625    -1.7004991789
   30      H      -1.5084856174     1.6837981839    -0.3644042817
   31      H      -1.5523994469     0.7087785037     1.1069844461
   32      H      -3.6457122076     0.6595566182    -1.1030122832
   33      H      -3.7861991011     1.5402540532     0.4192462535
   34      H      -3.5094687408    -0.6750660075     1.6308561123
   35      H      -3.6644006554    -1.4823448874     0.0693889616
   36      H      -5.7425857149     0.3655988009     1.3095574946
   37      H      -5.7927770875    -1.3975617762     1.3518848155
   38      H      -5.7785179429    -1.3889006940    -1.1803523455
   39      H      -5.9878680741     0.3623648854    -1.1264945332
   40      H      -7.8980355569    -1.6619759536     0.1160683836
   41      H      -8.1145970371    -0.8934670867    -1.4556769078
   42      H      -8.0712368088     0.5387683232     1.2409282394
   43      H      -9.4687475031     0.2854959948     0.2005632610
   44      H      -8.1637470074     1.3505388094    -0.3236015455
   45      H       1.6475840950     2.4613236210     0.3661784878
   46      H       4.4517992460     3.4828960807    -0.3094820318
   47      H       2.9328919813     4.4828105644    -0.0703111819
 ----------------------------------------------------------------

    9   -1100.9358476600      2.66e-06  Convergence criterion met
 Total energy in the final basis set =    -1100.9358476600

                    Orbital Energies (a.u.)
 --------------------------------------------------------------

 Alpha MOs
 -- Occupied --
-88.8984 -10.2153 -10.2102 -10.1970 -10.1944 -10.1919 -10.1866 -10.1831
-10.1812 -10.1789 -10.1776 -10.1753 -10.1749 -10.1733 -10.1731 -10.1725
-10.1716 -10.1711 -10.1665  -7.9604  -5.9244  -5.9207  -5.9173  -0.8881
 -0.8190  -0.8082  -0.7990  -0.7807  -0.7675  -0.7483  -0.7200  -0.7012
 -0.6800  -0.6565  -0.6222  -0.6172  -0.5928  -0.5791  -0.5686  -0.5496
 -0.5347  -0.5237  -0.4885  -0.4757  -0.4679  -0.4584  -0.4527  -0.4454
 -0.4365  -0.4347  -0.4283  -0.4195  -0.4084  -0.4013  -0.3972  -0.3843
 -0.3837  -0.3743  -0.3690  -0.3647  -0.3606  -0.3528  -0.3485  -0.3419
 -0.3391  -0.3316  -0.3278  -0.3222  -0.3173  -0.3144  -0.3078  -0.3061
 -0.2987  -0.2671  -0.2429  -0.1936

          Ground-State Mulliken Net Atomic Charges

     Atom                 Charge (a.u.)
  ----------------------------------------
      1 C                    -0.341823
      2 C                    -0.088366
      3 C                    -0.127858
      4 C                    -0.161687
      5 C                     0.155633
      6 C                    -0.350811
      7 C                    -0.256062
      8 C                    -0.254535
      9 C                    -0.260724
     10 C                    -0.256548
     11 C                    -0.257673
     12 C                    -0.255359
     13 C                    -0.250680
     14 C                    -0.250151
     15 C                    -0.444076
     16 C                    -0.202789
     17 C                    -0.055847
     18 C                    -0.378405
     19 S                     0.232370
     20 H                     0.146325
     21 H                     0.141924
     22 H                     0.137062
     23 H                     0.130863
     24 H                     0.152645
     25 H                     0.141255
     26 H                     0.136582
     27 H                     0.140686
     28 H                     0.134055
     29 H                     0.129919
     30 H                     0.125503
     31 H                     0.132375
     32 H                     0.134527
     33 H                     0.125566
     34 H                     0.124139
     35 H                     0.133263
     36 H                     0.132079
     37 H                     0.124721
     38 H                     0.125015
     39 H                     0.132904
     40 H                     0.129221
     41 H                     0.128571
     42 H                     0.147718
     43 H                     0.141880
     44 H                     0.140638
     45 H                     0.137261
     46 H                     0.155016
     47 H                     0.143678
  ----------------------------------------
  Sum of atomic charges =     0.000000

                    Cartesian Multipole Moments
 -----------------------------------------------------------------
    Charge (ESU x 10^10)
                -0.0000
    Dipole Moment (Debye)
         X      -1.1623      Y      -0.6279      Z       0.0330
       Tot       1.3215
    Quadrupole Moments (Debye-Ang)
        XX    -128.3823     XY      -3.2692     YY    -120.8158
        XZ      -0.9737     YZ      -0.6716     ZZ    -130.0410

 Total job time:  81.63s(wall), 81.40s(cpu)
        *  Thank you very much for using Q-Chem.  Have a nice day.  *
