 Q-Chem 5.2, Q-Chem, Inc., Pleasanton, CA (2019)
 Q-Chem 5.2.1 for Intel X86 EM64T Linux

User input:
--------------------------------------------------------------
$molecule
0 1
C        -5.23380095800000    1.45353094500000   -0.06682384350000
C        -4.63038530240000    0.27559325590000    0.03517568130000
C        -3.19210583720000    0.02730559060000    0.02274519070000
C        -2.75336311120000   -1.31056320020000   -0.03180776990000
C        -1.42003772590000   -1.65623967480000   -0.05361999470000
C        -0.49952245250000   -0.62097971320000   -0.01413900340000
O         0.84784356450000   -0.71013966590000   -0.02192397790000
C         1.32344718510000    0.56547855600000    0.03416109190000
C         2.74167667690000    0.79777781930000    0.03947707200000
C         3.67497076930000   -0.14665980550000   -0.01115586290000
F         3.48430335240000   -1.45287526310000   -0.07467971760000
F         4.97900186830000    0.11386668950000   -0.00416745220000
C         0.30636847910000    1.47884293680000    0.07900729990000
C        -0.90433180350000    0.73021708130000    0.04789138880000
C        -2.25760184590000    1.05243693700000    0.06641416940000
H        -6.30701217890000    1.53439413540000   -0.05033088360000
H        -4.69492677500000    2.37883690030000   -0.17602172610000
H        -5.23883780510000   -0.61574352080000    0.12708632860000
H        -3.49649187870000   -2.09402461500000   -0.06131456470000
H        -1.09764324830000   -2.68390156590000   -0.09742471450000
H         3.06813290540000    1.82349417510000    0.08816829590000
H         0.40940541300000    2.54345957160000    0.12682762720000
H        -2.56198705310000    2.08503583300000    0.12160369220000
$end

$rem
BASIS = 6-31G*
GUI = 2
METHOD = B3LYP
PRINT_ORBITALS false
MOLDEN_FORMAT false
--------------------------------------------------------------

             Standard Nuclear Orientation (Angstroms)
    I     Atom           X                Y                Z
 ----------------------------------------------------------------
    1      C       5.1928934030    -1.0394365150    -0.1014246586
    2      C       4.5038742528     0.0870778783     0.0337400123
    3      C       3.0511358691     0.2283117313     0.0264400737
    4      C       2.5143656891     1.5309900948     0.0099791582
    5      C       1.1590648520     1.7773561545    -0.0037316780
    6      C       0.3178710560     0.6759951851     0.0044730736
    7      O      -1.0324023143     0.6652114187    -0.0026559239
    8      C      -1.4120759470    -0.6432427819     0.0158298737
    9      C      -2.8091737783    -0.9800987823     0.0123971803
   10      C      -3.8099602546    -0.1063803945    -0.0122319057
   11      F      -3.7167124368     1.2116657439    -0.0376757107
   12      F      -5.0910799507    -0.4629564675    -0.0146460579
   13      C      -0.3300435775    -1.4796076356     0.0356931942
   14      C       0.8217948516    -0.6427010116     0.0279742770
   15      C       2.1952438912    -0.8641110410     0.0391040175
   16      H       6.2691577641    -1.0409587253    -0.0857432740
   17      H       4.7240306775    -1.9985952016    -0.2381105472
   18      H       5.0446299683     1.0180337607     0.1522628614
   19      H       3.1973380032     2.3679120233     0.0042078408
   20      H       0.7613305905     2.7791258624    -0.0182549250
   21      H      -3.0586448222    -2.0281728002     0.0309335832
   22      H      -0.3538267230    -2.5498702534     0.0525533096
   23      H       2.5753926991    -1.8724667943     0.0648387500
 ----------------------------------------------------------------

    9    -736.9436742308      6.97e-06  Convergence criterion met
 Total energy in the final basis set =     -736.9436742308

                    Orbital Energies (a.u.)
 --------------------------------------------------------------

 Alpha MOs
 -- Occupied --
-24.7456 -24.7423 -19.2185 -10.3669 -10.2620 -10.2444 -10.2156 -10.1951
-10.1936 -10.1934 -10.1910 -10.1895 -10.1891 -10.1878 -10.1763  -1.2911
 -1.2306  -1.1245  -0.8657  -0.8309  -0.8025  -0.7835  -0.7308  -0.7278
 -0.6615  -0.6355  -0.6084  -0.5953  -0.5777  -0.5641  -0.5432  -0.5251
 -0.5219  -0.4785  -0.4707  -0.4675  -0.4546  -0.4452  -0.4449  -0.4447
 -0.4230  -0.4138  -0.4073  -0.3913  -0.3873  -0.3676  -0.3497  -0.3374
 -0.3183  -0.2955  -0.2748  -0.2181  -0.2063

          Ground-State Mulliken Net Atomic Charges

     Atom                 Charge (a.u.)
  ----------------------------------------
      1 C                    -0.352306
      2 C                    -0.116798
      3 C                     0.171166
      4 C                    -0.211876
      5 C                    -0.185662
      6 C                     0.324339
      7 O                    -0.518873
      8 C                     0.366540
      9 C                    -0.323894
     10 C                     0.566608
     11 F                    -0.222327
     12 F                    -0.243512
     13 C                    -0.249639
     14 C                     0.128264
     15 C                    -0.264140
     16 H                     0.142186
     17 H                     0.139649
     18 H                     0.125635
     19 H                     0.129942
     20 H                     0.143754
     21 H                     0.177081
     22 H                     0.144057
     23 H                     0.129805
  ----------------------------------------
  Sum of atomic charges =     0.000000

                    Cartesian Multipole Moments
 -----------------------------------------------------------------
    Charge (ESU x 10^10)
                 0.0000
    Dipole Moment (Debye)
         X       0.2713      Y      -1.1183      Z       0.0324
       Tot       1.1512
    Quadrupole Moments (Debye-Ang)
        XX     -82.1114     XY       4.1223     YY     -74.6869
        XZ       0.0163     YZ       0.1784     ZZ     -86.7204

 Total job time:  35.84s(wall), 35.46s(cpu)
        *  Thank you very much for using Q-Chem.  Have a nice day.  *
