 Q-Chem 5.2, Q-Chem, Inc., Pleasanton, CA (2019)
 Q-Chem 5.2.1 for Intel X86 EM64T Linux

User input:
--------------------------------------------------------------
$molecule
0 1
C         3.49812751080000    0.38972068980000   -1.22805440240000
C         3.09054083170000   -0.28439876420000   -0.15964562280000
C         1.71732789680000   -0.42051527630000    0.27290543640000
N         1.33509269440000   -1.54994510360000    0.92271453080000
N         0.03301231160000   -1.59750443580000    1.17603539060000
C        -0.46200188320000   -0.46777559180000    0.69647914000000
N        -1.81820435730000   -0.16248282830000    0.80175550030000
C        -2.72733009280000   -0.14370481340000   -0.21741554410000
C        -2.17126954740000   -0.43357415880000   -1.59168496090000
O        -3.89446878640000    0.08821590180000    0.00124978840000
C         0.55618497380000    0.34424074720000    0.12583862480000
C         0.33910200720000    1.70806799280000   -0.30857120620000
C         1.25688936870000    2.66462648200000   -0.37733779600000
H         4.53690581390000    0.42142038570000   -1.50675147280000
H         2.80859062980000    0.92130002120000   -1.86036789640000
H         3.80588103460000   -0.84286594770000    0.43346602540000
H         1.92146582590000   -2.32898895610000    1.17829710820000
H        -2.21598975760000   -0.16897552040000    1.73212197130000
H        -1.54337617830000    0.38447937740000   -1.93530848560000
H        -2.99892705740000   -0.55891578980000   -2.28387711060000
H        -1.57189896300000   -1.34093631220000   -1.56354861440000
H        -0.69759814090000    1.95319857750000   -0.50270381230000
H         2.29227762320000    2.48736633870000   -0.14357657930000
H         0.99141648130000    3.66926364180000   -0.65759023770000
$end

$rem
BASIS = 6-31G*
GUI = 2
METHOD = B3LYP
PRINT_ORBITALS false
MOLDEN_FORMAT false
--------------------------------------------------------------

             Standard Nuclear Orientation (Angstroms)
    I     Atom           X                Y                Z
 ----------------------------------------------------------------
    1      C       3.5107417916    -0.5668292587     0.9350862912
    2      C       3.0202250480     0.4766235003     0.2773166328
    3      C       1.6286386084     0.6757425048    -0.0620661767
    4      N       1.1392602640     1.9399274768    -0.1415176492
    5      N      -0.1692414076     1.9860840426    -0.3595534679
    6      C      -0.5588559203     0.7240018312    -0.4410981468
    7      N      -1.8889697901     0.3851830239    -0.6851695363
    8      C      -2.7639614457    -0.1631094258     0.2088868528
    9      C      -2.1933092840    -0.4720254281     1.5729876596
   10      O      -3.9147901513    -0.3700479199    -0.1018931753
   11      C       0.5366833431    -0.1686743690    -0.2841633445
   12      C       0.4413110355    -1.5957751654    -0.5081033176
   13      C       1.4338292564    -2.4014726344    -0.8656306558
   14      H       4.5563553532    -0.6323061045     1.1803256706
   15      H       2.8841599337    -1.3806711222     1.2558894196
   16      H       3.6715108595     1.2990734230     0.0038544878
   17      H       1.6542396002     2.7972688293    -0.0157109888
   18      H      -2.3126718617     0.7731084534    -1.5181446655
   19      H      -1.4927314386    -1.3014601067     1.5203797296
   20      H      -3.0080080043    -0.7390546253     2.2399350738
   21      H      -1.6690208797     0.3991188430     1.9597332569
   22      H      -0.5665940758    -1.9879025206    -0.4543716383
   23      H       2.4446794528    -2.0522114028    -0.9851830505
   24      H       1.2572442100    -3.4438314402    -1.0671720889
 ----------------------------------------------------------------

    9    -589.0046840991      6.85e-06  Convergence criterion met
 Total energy in the final basis set =     -589.0046840991

                    Orbital Energies (a.u.)
 --------------------------------------------------------------

 Alpha MOs
 -- Occupied --
-19.1058 -14.4244 -14.3599 -14.3580 -10.2836 -10.2475 -10.2407 -10.2156
-10.1992 -10.1983 -10.1974 -10.1815 -10.1806  -1.0712  -1.0344  -0.9353
 -0.8449  -0.8208  -0.7807  -0.7492  -0.7381  -0.6535  -0.6415  -0.6082
 -0.5756  -0.5539  -0.5355  -0.5111  -0.4830  -0.4692  -0.4625  -0.4506
 -0.4448  -0.4392  -0.4207  -0.4007  -0.3922  -0.3817  -0.3672  -0.3624
 -0.3222  -0.3162  -0.2980  -0.2784  -0.2497  -0.2353  -0.2193

          Ground-State Mulliken Net Atomic Charges

     Atom                 Charge (a.u.)
  ----------------------------------------
      1 C                    -0.335624
      2 C                    -0.125080
      3 C                     0.330463
      4 N                    -0.466605
      5 N                    -0.315604
      6 C                     0.420301
      7 N                    -0.666942
      8 C                     0.563306
      9 C                    -0.550115
     10 O                    -0.486492
     11 C                    -0.009544
     12 C                    -0.115769
     13 C                    -0.356821
     14 H                     0.152095
     15 H                     0.168934
     16 H                     0.133608
     17 H                     0.346906
     18 H                     0.339520
     19 H                     0.176772
     20 H                     0.183514
     21 H                     0.178558
     22 H                     0.139448
     23 H                     0.150861
     24 H                     0.144308
  ----------------------------------------
  Sum of atomic charges =     0.000000

                    Cartesian Multipole Moments
 -----------------------------------------------------------------
    Charge (ESU x 10^10)
                -0.0000
    Dipole Moment (Debye)
         X       5.5496      Y       0.9405      Z       0.6952
       Tot       5.6715
    Quadrupole Moments (Debye-Ang)
        XX     -84.3424     XY       2.9905     YY     -70.3612
        XZ       0.1733     YZ      -1.0432     ZZ     -74.3398

 Total job time:  34.80s(wall), 34.32s(cpu)
        *  Thank you very much for using Q-Chem.  Have a nice day.  *
