 Q-Chem 5.2, Q-Chem, Inc., Pleasanton, CA (2019)
 Q-Chem 5.2.1 for Intel X86 EM64T Linux

User input:
--------------------------------------------------------------
$molecule
0 1
C         4.09110455410000   -0.05914873100000   -1.40533065850000
C         2.83622481650000    0.36413703960000   -1.53275598440000
C         1.72339669510000   -0.11872186050000   -0.76072393600000
S         1.93531838900000   -1.45448052530000    0.33153848430000
C         0.25893135570000   -1.40821767190000    0.79156001420000
C        -0.24241098560000   -2.33229394140000    1.77294685740000
C         0.45976148650000   -3.32757236520000    2.30840830090000
C        -0.41553450290000   -0.40923599820000    0.12319660360000
C        -1.88961899990000   -0.16564375130000    0.24435354530000
C        -2.67560665040000   -0.88102601510000   -0.86767501060000
C        -2.71242115980000   -2.40161680100000   -0.71070121360000
C        -3.69651428860000   -2.89155823140000    0.35364043210000
C        -5.15141028970000   -2.84234171920000   -0.10889465470000
C        -6.10143144720000   -3.34896486470000    0.96952727320000
C         0.42011527340000    0.32902825830000   -0.75591357950000
C        -0.05549570080000    1.51972276230000   -1.53276856830000
C        -0.00699676420000    2.80534813380000   -0.69178008430000
C         1.41534185720000    3.23638189330000   -0.34778426820000
C         1.43222714780000    4.51427895160000    0.48782276100000
C         2.83169730470000    4.89723107390000    0.96966323860000
C         3.77682916760000    5.27334378350000   -0.16555306170000
H         4.88448284810000    0.33428182220000   -2.01588664120000
H         4.36141213610000   -0.81202740710000   -0.68356062130000
H         2.60232673900000    1.12678427470000   -2.26298735480000
H        -1.26809207700000   -2.18087575570000    2.07895540610000
H         1.48198083560000   -3.51386004820000    2.02333095740000
H         0.03375581020000   -3.98571010840000    3.04479446250000
H        -2.08536007420000    0.90555871800000    0.17515429340000
H        -2.24859736550000   -0.49932332680000    1.21767860530000
H        -2.21638811680000   -0.64149963890000   -1.82933530710000
H        -3.69465636640000   -0.49034663190000   -0.88284527660000
H        -1.70813509140000   -2.75287634310000   -0.46548422990000
H        -2.98840139640000   -2.84953110640000   -1.66836403110000
H        -3.59390195280000   -2.29364359490000    1.26130181290000
H        -3.44833839080000   -3.92348315220000    0.61323240040000
H        -5.26338616220000   -3.45425414190000   -1.00705159340000
H        -5.42300866560000   -1.81796423030000   -0.37140923070000
H        -5.86437850230000   -4.37736311860000    1.23405723740000
H        -7.13136218210000   -3.31288506920000    0.62185993120000
H        -6.02124573360000   -2.73887027670000    1.86700004200000
H        -1.08276375680000    1.35416203470000   -1.86069173220000
H         0.55571739210000    1.65573683820000   -2.42608367470000
H        -0.56656565910000    2.65341514070000    0.23424776900000
H        -0.49943682490000    3.60547370100000   -1.25036899180000
H         1.97158166630000    3.39787740450000   -1.27233667190000
H         1.91258095020000    2.43870050800000    0.20797905970000
H         0.79001053550000    4.37219525940000    1.36102132490000
H         1.01433612750000    5.33706192730000   -0.09787260200000
H         3.25734130850000    4.06354418310000    1.53279401380000
H         2.74367941720000    5.74642269700000    1.65185128210000
H         3.98320190230000    4.41601789150000   -0.80081773170000
H         4.72259850090000    5.63175952050000    0.23468845030000
H         3.34298172480000    6.06201757840000   -0.77691952110000
$end

$rem
BASIS = 6-31G*
GUI = 2
METHOD = B3LYP
PRINT_ORBITALS false
MOLDEN_FORMAT false
--------------------------------------------------------------

             Standard Nuclear Orientation (Angstroms)
    I     Atom           X                Y                Z
 ----------------------------------------------------------------
    1      C      -3.0241288406     2.7996735151    -1.4702712372
    2      C      -2.4222044285     1.6143195298    -1.5227511839
    3      C      -1.2279507012     1.2661542187    -0.8015635662
    4      S      -0.3747509856     2.4779411703     0.1071838350
    5      C       0.8362832044     1.3295016805     0.5955653190
    6      C       1.9106622730     1.7416131349     1.4582674677
    7      C       2.1328239142     2.9933790631     1.8507856776
    8      C       0.5812950323     0.0806218664     0.0712958565
    9      C       1.4842747456    -1.1030742922     0.2457445108
   10      C       2.4571705457    -1.2528750830    -0.9362831389
   11      C       3.5442970435    -0.1782279204    -0.9747782406
   12      C       4.6734292403    -0.4019277863     0.0333506610
   13      C       5.6512813397    -1.4938839568    -0.3962076459
   14      C       6.7684727350    -1.6806062833     0.6232133784
   15      C      -0.5977696237     0.0434096209    -0.7190212703
   16      C      -1.1365665388    -1.2153787590    -1.3294412676
   17      C      -1.9926016554    -2.0115953508    -0.3315988998
   18      C      -3.2873395296    -1.2968011277     0.0424244057
   19      C      -4.1156982480    -2.1099921282     1.0344361709
   20      C      -5.3501115683    -1.3625818763     1.5393529601
   21      C      -6.3782076019    -1.0920633704     0.4469751222
   22      H      -3.9141394227     3.0066362287    -2.0377771177
   23      H      -2.6436333877     3.5982603736    -0.8551885468
   24      H      -2.8363116259     0.8331531049    -2.1455442601
   25      H       2.5686437752     0.9537153345     1.7971889908
   26      H       1.5030027943     3.8058901823     1.5282091311
   27      H       2.9505640710     3.2429219942     2.5034111948
   28      H       0.8812803055    -2.0096307157     0.3173754470
   29      H       2.0484381007    -1.0139268719     1.1738294448
   30      H       1.8866449294    -1.2041665885    -1.8664299424
   31      H       2.9204672239    -2.2398308513    -0.8853190285
   32      H       3.0823177416     0.7940868755    -0.7923386494
   33      H       3.9774966845    -0.1490231233    -1.9774723809
   34      H       4.2577699657    -0.6634774929     1.0083888678
   35      H       5.2263684348     0.5326169209     0.1547291840
   36      H       6.0840728959    -1.2278713252    -1.3634666827
   37      H       5.1201861198    -2.4395967321    -0.5210837217
   38      H       7.3273737314    -0.7557825618     0.7501146379
   39      H       7.4582750527    -2.4565776920     0.2992183376
   40      H       6.3597742846    -1.9674453067     1.5900595280
   41      H      -0.3081201841    -1.8437217662    -1.6597219323
   42      H      -1.7398693241    -0.9804021353    -2.2074531632
   43      H      -1.4129728256    -2.1960292062     0.5760040642
   44      H      -2.2330377183    -2.9811373511    -0.7753313796
   45      H      -3.8710496386    -1.1213415395    -0.8624386304
   46      H      -3.0522640251    -0.3259637440     0.4835927029
   47      H      -3.4874463859    -2.3642205768     1.8922083891
   48      H      -4.4275458916    -3.0467668615     0.5655567254
   49      H      -5.0380812825    -0.4149807369     1.9843384667
   50      H      -5.8192551416    -1.9587288388     2.3259705258
   51      H      -5.9850417690    -0.4031840446    -0.2960083864
   52      H      -7.2753193051    -0.6502863829     0.8749452445
   53      H      -6.6570404389    -2.0182354635    -0.0514788967
 ----------------------------------------------------------------

    9   -1179.5634100797      1.48e-06  Convergence criterion met
 Total energy in the final basis set =    -1179.5634100797

                    Orbital Energies (a.u.)
 --------------------------------------------------------------

 Alpha MOs
 -- Occupied --
-88.8916 -10.2100 -10.2097 -10.1936 -10.1935 -10.1893 -10.1887 -10.1862
-10.1862 -10.1791 -10.1787 -10.1778 -10.1777 -10.1745 -10.1729 -10.1715
-10.1707 -10.1700 -10.1697 -10.1679 -10.1650  -7.9538  -5.9179  -5.9143
 -5.9103  -0.8884  -0.8160  -0.8135  -0.7998  -0.7881  -0.7707  -0.7637
 -0.7343  -0.7219  -0.6890  -0.6872  -0.6453  -0.6411  -0.6232  -0.5992
 -0.5900  -0.5668  -0.5629  -0.5568  -0.5247  -0.5181  -0.4938  -0.4764
 -0.4673  -0.4635  -0.4540  -0.4401  -0.4392  -0.4324  -0.4280  -0.4233
 -0.4225  -0.4145  -0.4001  -0.3967  -0.3925  -0.3891  -0.3807  -0.3754
 -0.3729  -0.3611  -0.3579  -0.3570  -0.3487  -0.3461  -0.3404  -0.3347
 -0.3319  -0.3241  -0.3193  -0.3172  -0.3155  -0.3130  -0.3112  -0.3038
 -0.3034  -0.2630  -0.2340  -0.1928

          Ground-State Mulliken Net Atomic Charges

     Atom                 Charge (a.u.)
  ----------------------------------------
      1 C                    -0.379454
      2 C                    -0.048409
      3 C                    -0.210809
      4 S                     0.227641
      5 C                    -0.212012
      6 C                    -0.051749
      7 C                    -0.380989
      8 C                     0.120076
      9 C                    -0.358121
     10 C                    -0.258909
     11 C                    -0.270119
     12 C                    -0.252376
     13 C                    -0.252445
     14 C                    -0.441100
     15 C                     0.121320
     16 C                    -0.358498
     17 C                    -0.254166
     18 C                    -0.261915
     19 C                    -0.249234
     20 C                    -0.250198
     21 C                    -0.444726
     22 H                     0.143710
     23 H                     0.157983
     24 H                     0.136435
     25 H                     0.140810
     26 H                     0.158287
     27 H                     0.144069
     28 H                     0.147827
     29 H                     0.146012
     30 H                     0.141148
     31 H                     0.134123
     32 H                     0.153578
     33 H                     0.129386
     34 H                     0.124573
     35 H                     0.131842
     36 H                     0.132237
     37 H                     0.133708
     38 H                     0.142594
     39 H                     0.141547
     40 H                     0.140679
     41 H                     0.146918
     42 H                     0.144228
     43 H                     0.139350
     44 H                     0.130651
     45 H                     0.128402
     46 H                     0.153148
     47 H                     0.126869
     48 H                     0.124140
     49 H                     0.134043
     50 H                     0.128190
     51 H                     0.148664
     52 H                     0.142033
     53 H                     0.139006
  ----------------------------------------
  Sum of atomic charges =     0.000000

                    Cartesian Multipole Moments
 -----------------------------------------------------------------
    Charge (ESU x 10^10)
                 0.0000
    Dipole Moment (Debye)
         X       0.2353      Y      -1.4004      Z      -0.2612
       Tot       1.4438
    Quadrupole Moments (Debye-Ang)
        XX    -136.3422     XY      -0.1330     YY    -138.4955
        XZ       3.8485     YZ       1.6903     ZZ    -139.6030

 Total job time:  139.51s(wall), 139.15s(cpu)
        *  Thank you very much for using Q-Chem.  Have a nice day.  *
