 Q-Chem 5.2, Q-Chem, Inc., Pleasanton, CA (2019)
 Q-Chem 5.2.1 for Intel X86 EM64T Linux

User input:
--------------------------------------------------------------
$molecule
0 1
C        -4.08265045010000    2.27959170350000    1.68896009490000
C        -4.32359044660000    1.34114146260000    0.77603379520000
C        -3.33718143420000    0.47140002090000    0.19497443180000
C        -1.98523945470000    0.39569385690000    0.42144732720000
C        -1.32977820810000   -0.58880187130000   -0.33742800800000
C         0.14236800190000   -0.88237956550000   -0.28467394900000
C         0.92737584120000    0.00552283860000    0.67713884300000
C         2.41321828470000   -0.34777210680000    0.67027642830000
C         3.20988342830000    0.54714481140000    1.61677927680000
C         4.67820750030000    0.14000049180000    1.74716951330000
C         5.48454912410000    0.19493176720000    0.44738841370000
C         5.51805500330000    1.56289477800000   -0.23569013020000
C         6.16500622940000    2.64593185400000    0.61942246740000
C        -2.19757405480000   -1.28081175250000   -1.16134105250000
C        -1.88018229720000   -2.34755871180000   -2.06909432170000
C        -2.76004650130000   -2.97811918080000   -2.84358167840000
S        -3.82689792400000   -0.70145798200000   -0.98698092190000
H        -4.87363685890000    2.89485717370000    2.07960754810000
H        -3.09539090830000    2.46480478990000    2.07501561630000
H        -5.33298251230000    1.18937438150000    0.41574023610000
H        -1.48513365130000    1.03918491250000    1.12060503700000
H         0.55960234680000   -0.76887272990000   -1.29059647630000
H         0.28237946730000   -1.92864751020000    0.00633172660000
H         0.53503563430000   -0.11532806000000    1.68934648380000
H         0.80799405630000    1.05218328440000    0.38798530490000
H         2.79758487390000   -0.24422495670000   -0.34608351760000
H         2.53913170360000   -1.39133859110000    0.97000733050000
H         2.75512966670000    0.49924683920000    2.61008032660000
H         3.14052652780000    1.58287085590000    1.27977248800000
H         4.72419867290000   -0.88305587590000    2.13004311290000
H         5.15265167980000    0.78391514450000    2.49016509760000
H         5.08244158990000   -0.53724793490000   -0.25582165730000
H         6.51080331980000   -0.10570094240000    0.67459275830000
H         4.50550524100000    1.86815266840000   -0.50450880870000
H         6.08376036450000    1.46324282300000   -1.16570598600000
H         5.57352285180000    2.84789564410000    1.50863264360000
H         6.25202099590000    3.57134689970000    0.05409773050000
H         7.16168271950000    2.33992982700000    0.93068598030000
H        -0.83641974170000   -2.63151875690000   -2.09681054120000
H        -3.80516060030000   -2.71596261700000   -2.83600624840000
H        -2.46333154950000   -3.77201049780000   -3.50568066070000
$end

$rem
BASIS = 6-31G*
GUI = 2
METHOD = B3LYP
PRINT_ORBITALS false
MOLDEN_FORMAT false
--------------------------------------------------------------

             Standard Nuclear Orientation (Angstroms)
    I     Atom           X                Y                Z
 ----------------------------------------------------------------
    1      C      -3.4736995059    -3.7014923057     0.0469475383
    2      C      -4.0132120639    -2.4905296717     0.1680717060
    3      C      -3.2951267646    -1.2472508828     0.0926114198
    4      C      -1.9578125332    -1.0122183368    -0.1101664395
    5      C      -1.6092961619     0.3490678120    -0.1239293984
    6      C      -0.2199302480     0.8830732187    -0.3256368592
    7      C       0.8476533547    -0.1924315635    -0.5079732208
    8      C       2.2306756266     0.4263097148    -0.7003291515
    9      C       3.3083896182    -0.6425468350    -0.8661528892
   10      C       4.6867371600    -0.0700393075    -1.1995248682
   11      C       5.2755296355     0.8630589692    -0.1387297924
   12      C       5.4357750610     0.2436816023     1.2504191632
   13      C       6.3858611256    -0.9478034023     1.2712207269
   14      C      -2.7019699019     1.1727258545     0.0721102387
   15      C      -2.7197989775     2.6081026363     0.1176977247
   16      C      -3.8058535747     3.3522580078     0.3134434357
   17      S      -4.1592510339     0.2471332930     0.2730048121
   18      H      -4.0755143408    -4.5903311559     0.1147777186
   19      H      -2.4209961482    -3.8465165218    -0.1227809899
   20      H      -5.0776269311    -2.3917090086     0.3382848227
   21      H      -1.2506862698    -1.8089567567    -0.2450307942
   22      H       0.0468526603     1.5030685787     0.5365006383
   23      H      -0.2178810068     1.5355183963    -1.2049975455
   24      H       0.6048050798    -0.8048526258    -1.3792167249
   25      H       0.8660241395    -0.8414966720     0.3705123324
   26      H       2.4621400434     1.0525570141     0.1632018385
   27      H       2.2208547525     1.0681339258    -1.5850262988
   28      H       3.0144175580    -1.3135512080    -1.6779876841
   29      H       3.3659866244    -1.2426668694     0.0436003322
   30      H       4.6158233863     0.4872220217    -2.1374922239
   31      H       5.3758882899    -0.8996235450    -1.3687185758
   32      H       4.6478073675     1.7525407939    -0.0546534757
   33      H       6.2575688985     1.1930109950    -0.4879146447
   34      H       4.4613021049    -0.0613955221     1.6351701070
   35      H       5.8222317813     1.0144467006     1.9223231195
   36      H       5.9855053094    -1.7777023856     0.6947490502
   37      H       6.5405775950    -1.2893090235     2.2924911902
   38      H       7.3514570682    -0.6715620438     0.8526500299
   39      H      -1.7580252481     3.0838443366    -0.0219550457
   40      H      -4.7758643289     2.9049914390     0.4551427095
   41      H      -3.7581629423     4.4264133856     0.3378171153
 ----------------------------------------------------------------

    9   -1022.3091948801      2.47e-06  Convergence criterion met
 Total energy in the final basis set =    -1022.3091948801

                    Orbital Energies (a.u.)
 --------------------------------------------------------------

 Alpha MOs
 -- Occupied --
-88.8982 -10.2142 -10.2086 -10.1963 -10.1936 -10.1928 -10.1887 -10.1824
-10.1817 -10.1803 -10.1775 -10.1775 -10.1751 -10.1749 -10.1733 -10.1726
-10.1682  -7.9602  -5.9240  -5.9206  -5.9172  -0.8875  -0.8188  -0.8057
 -0.7947  -0.7710  -0.7586  -0.7281  -0.7035  -0.6878  -0.6530  -0.6244
 -0.6096  -0.5893  -0.5733  -0.5443  -0.5298  -0.5234  -0.4887  -0.4843
 -0.4627  -0.4600  -0.4573  -0.4491  -0.4260  -0.4211  -0.4177  -0.4076
 -0.3931  -0.3913  -0.3912  -0.3770  -0.3679  -0.3628  -0.3598  -0.3540
 -0.3498  -0.3426  -0.3375  -0.3316  -0.3251  -0.3162  -0.3114  -0.3073
 -0.3016  -0.2672  -0.2441  -0.1921

          Ground-State Mulliken Net Atomic Charges

     Atom                 Charge (a.u.)
  ----------------------------------------
      1 C                    -0.344093
      2 C                    -0.086931
      3 C                    -0.133219
      4 C                    -0.168227
      5 C                     0.154503
      6 C                    -0.340170
      7 C                    -0.268557
      8 C                    -0.255964
      9 C                    -0.259811
     10 C                    -0.260107
     11 C                    -0.254351
     12 C                    -0.253828
     13 C                    -0.444635
     14 C                    -0.206123
     15 C                    -0.056876
     16 C                    -0.376075
     17 S                     0.232722
     18 H                     0.145791
     19 H                     0.141631
     20 H                     0.136311
     21 H                     0.137058
     22 H                     0.152618
     23 H                     0.153078
     24 H                     0.139277
     25 H                     0.139164
     26 H                     0.136202
     27 H                     0.129456
     28 H                     0.127823
     29 H                     0.133648
     30 H                     0.126950
     31 H                     0.131957
     32 H                     0.131260
     33 H                     0.126952
     34 H                     0.133525
     35 H                     0.130919
     36 H                     0.147425
     37 H                     0.142592
     38 H                     0.142311
     39 H                     0.137304
     40 H                     0.154922
     41 H                     0.143568
  ----------------------------------------
  Sum of atomic charges =     0.000000

                    Cartesian Multipole Moments
 -----------------------------------------------------------------
    Charge (ESU x 10^10)
                -0.0000
    Dipole Moment (Debye)
         X       1.3802      Y      -0.0872      Z      -0.1874
       Tot       1.3955
    Quadrupole Moments (Debye-Ang)
        XX    -114.2145     XY       1.8327     YY    -107.3083
        XZ      -0.7505     YZ       0.1237     ZZ    -116.5775

 Total job time:  72.16s(wall), 71.95s(cpu)
        *  Thank you very much for using Q-Chem.  Have a nice day.  *
