 Q-Chem 5.2, Q-Chem, Inc., Pleasanton, CA (2019)
 Q-Chem 5.2.1 for Intel X86 EM64T Linux

User input:
--------------------------------------------------------------
$molecule
0 1
C        -4.40820719090000    0.50594765380000   -0.58847199920000
C        -3.53271568490000   -0.34952434490000   -0.07373305810000
C        -2.09573217070000   -0.13710658620000    0.06354767600000
C        -1.23630229460000   -1.21798918060000   -0.05431517790000
C         0.15011168760000   -1.06660568890000    0.02598564960000
C         1.07162732990000   -2.18973243240000   -0.08017180590000
C         0.81510625950000   -3.33541556310000   -0.69890888890000
C         0.61232837450000    0.23505228310000    0.25285488170000
C         2.07694208620000    0.54458418120000    0.33370087830000
O         2.63898533760000    0.97900333780000    1.30306693400000
O         2.67503099120000    0.26560604430000   -0.83120469350000
C         4.07221089790000    0.51009114020000   -0.93302739990000
N        -0.18719073090000    1.27277858690000    0.43050632410000
C        -1.50438955520000    1.11896802040000    0.34851672310000
N        -2.23525565370000    2.25401285560000    0.54313020210000
H        -5.45134794100000    0.25156686150000   -0.67290005680000
H        -4.11554948380000    1.46235060460000   -0.98677282270000
H        -3.87291633030000   -1.32846784060000    0.24406436410000
H        -1.65361980420000   -2.20188761170000   -0.21367909100000
H         2.03731201190000   -2.04008293740000    0.38503222330000
H        -0.11800181410000   -3.52330386680000   -1.20269117350000
H         1.54230990260000   -4.12785406800000   -0.73784680850000
H         4.55344244130000   -0.41318295380000   -1.25575181690000
H         4.46478941770000    0.82640017300000    0.03549307340000
H         4.23465255480000    1.29193457200000   -1.67532851820000
H        -1.70804819730000    3.01979866500000    0.93251406140000
H        -3.18574894710000    2.14759812980000    0.85851944890000
$end

$rem
BASIS = 6-31G*
GUI = 2
METHOD = B3LYP
PRINT_ORBITALS false
MOLDEN_FORMAT false
--------------------------------------------------------------

             Standard Nuclear Orientation (Angstroms)
    I     Atom           X                Y                Z
 ----------------------------------------------------------------
    1      C       4.4017638771     0.0461732541    -0.7254332947
    2      C       3.4662495478     0.6862254459    -0.0337541591
    3      C       2.0618505071     0.3062746569     0.0766526187
    4      C       1.0990428357     1.2960752252     0.1954582166
    5      C      -0.2628603276     0.9922573732     0.2619668694
    6      C      -1.2910881390     2.0145474709     0.4017691960
    7      C      -1.1671018469     3.2820170280     0.0284371793
    8      C      -0.5898792105    -0.3682336934     0.2225955832
    9      C      -2.0143643679    -0.8340821738     0.2581852640
   10      O      -2.4986216823    -1.5110002168     1.1251108585
   11      O      -2.6759443934    -0.3859986611    -0.8160945719
   12      C      -4.0458380130    -0.7445517835    -0.9467989973
   13      N       0.3112275576    -1.3342113739     0.1719948953
   14      C       1.6039854012    -1.0346789586     0.1052849433
   15      N       2.4467249160    -2.1058183394     0.0522097574
   16      H       5.4121477975     0.4164593601    -0.7700745552
   17      H       4.1888909252    -0.8338574686    -1.3078675976
   18      H       3.7215013353     1.6093765904     0.4738879766
   19      H       1.4142271380     2.3288434813     0.2361456601
   20      H      -2.2214673829     1.6766765766     0.8394841563
   21      H      -0.2741210072     3.6616798621    -0.4387144388
   22      H      -1.9679674832     3.9882175251     0.1633266698
   23      H      -4.6242794234     0.1716081055    -1.0660738607
   24      H      -4.3728881554    -1.2891511070    -0.0587387590
   25      H      -4.1576973897    -1.3714942171    -1.8317329263
   26      H       2.0091323263    -2.9840299032     0.2829749467
   27      H       3.3928210256    -1.9702728578     0.3696393486
 ----------------------------------------------------------------

    9    -686.3095543602      6.22e-06  Convergence criterion met
 Total energy in the final basis set =     -686.3095543602

                    Orbital Energies (a.u.)
 --------------------------------------------------------------

 Alpha MOs
 -- Occupied --
-19.1908 -19.1326 -14.3474 -14.3232 -10.3109 -10.2634 -10.2344 -10.2308
-10.2035 -10.2029 -10.2026 -10.1963 -10.1914 -10.1883 -10.1784  -1.1064
 -1.0168  -0.9749  -0.9012  -0.8328  -0.8068  -0.7606  -0.7482  -0.7170
 -0.6553  -0.6434  -0.5993  -0.5797  -0.5558  -0.5415  -0.5349  -0.4911
 -0.4844  -0.4823  -0.4720  -0.4652  -0.4578  -0.4313  -0.4246  -0.4173
 -0.4048  -0.4001  -0.3897  -0.3758  -0.3535  -0.3476  -0.3364  -0.3182
 -0.2982  -0.2853  -0.2765  -0.2551  -0.2497  -0.2028

          Ground-State Mulliken Net Atomic Charges

     Atom                 Charge (a.u.)
  ----------------------------------------
      1 C                    -0.367797
      2 C                    -0.138231
      3 C                     0.142959
      4 C                    -0.229485
      5 C                     0.145362
      6 C                    -0.115507
      7 C                    -0.350911
      8 C                     0.201978
      9 C                     0.523090
     10 O                    -0.452925
     11 O                    -0.425324
     12 C                    -0.238880
     13 N                    -0.555576
     14 C                     0.425843
     15 N                    -0.775011
     16 H                     0.147600
     17 H                     0.167401
     18 H                     0.140064
     19 H                     0.139146
     20 H                     0.139134
     21 H                     0.140146
     22 H                     0.142921
     23 H                     0.164009
     24 H                     0.191311
     25 H                     0.166995
     26 H                     0.341585
     27 H                     0.330103
  ----------------------------------------
  Sum of atomic charges =     0.000000

                    Cartesian Multipole Moments
 -----------------------------------------------------------------
    Charge (ESU x 10^10)
                -0.0000
    Dipole Moment (Debye)
         X       1.8171      Y       1.1357      Z      -0.7477
       Tot       2.2695
    Quadrupole Moments (Debye-Ang)
        XX     -68.2151     XY      -5.1645     YY     -82.0293
        XZ       6.8114     YZ       2.4720     ZZ     -91.0023

 Total job time:  43.68s(wall), 43.52s(cpu)
        *  Thank you very much for using Q-Chem.  Have a nice day.  *
