 Q-Chem 5.2, Q-Chem, Inc., Pleasanton, CA (2019)
 Q-Chem 5.2.1 for Intel X86 EM64T Linux

User input:
--------------------------------------------------------------
$molecule
0 1
C         4.23089067250000   -0.09107600270000    0.00973482090000
C         3.11074763650000    0.58775101630000    0.22754899380000
C         1.74793507190000    0.09788427520000    0.06739373900000
C         1.44347721860000   -1.17614760270000   -0.41203723340000
C         0.13071233560000   -1.57529290130000   -0.53921427900000
C        -0.92499040640000   -0.73873880870000   -0.18129035030000
C        -2.29352253920000   -1.26091315540000   -0.33041516020000
C        -3.15400363570000   -1.42384514790000    0.66062956050000
C        -0.63948910610000    0.54741395430000    0.28754652910000
C        -1.72563481120000    1.54740423750000    0.57639115340000
C        -2.20646120850000    2.19143996520000   -0.72523560640000
C         0.68541389080000    0.93900189200000    0.39614289810000
H         5.19686423060000    0.36043305280000    0.15872948150000
H         4.23759820630000   -1.11547549710000   -0.32112853020000
H         3.18076909330000    1.61518271690000    0.56543591340000
H         2.23311166680000   -1.85541010820000   -0.69280983180000
H        -0.09395854490000   -2.56510461390000   -0.91226255650000
H        -2.55718958450000   -1.57952543260000   -1.33282623640000
H        -2.90763733460000   -1.16177652960000    1.67677281680000
H        -4.13376102770000   -1.84171427990000    0.50026581260000
H        -1.33879397480000    2.32247476480000    1.24096576270000
H        -2.57176024990000    1.06875443050000    1.06733240110000
H        -1.37754451520000    2.67258610170000   -1.24015039920000
H        -2.97036840730000    2.93831142540000   -0.52115225350000
H        -2.62803636660000    1.43563257690000   -1.38416918670000
H         0.90348461140000    1.93752507110000    0.75174853610000
$end

$rem
BASIS = 6-31G*
GUI = 2
METHOD = B3LYP
PRINT_ORBITALS false
MOLDEN_FORMAT false
--------------------------------------------------------------

             Standard Nuclear Orientation (Angstroms)
    I     Atom           X                Y                Z
 ----------------------------------------------------------------
    1      C       4.2596579603    -0.0659544870     0.0386658967
    2      C       3.1309720412     0.6131508753     0.2055597546
    3      C       1.7745010062     0.0981772616     0.0726472857
    4      C       1.4866180535    -1.2084978871    -0.3215979794
    5      C       0.1790182838    -1.6301805826    -0.4274712753
    6      C      -0.8876958544    -0.7835914023    -0.1310791782
    7      C      -2.2495853180    -1.3301239004    -0.2508446703
    8      C      -3.1132874938    -1.4360654449     0.7451167399
    9      C      -0.6188477265     0.5342510215     0.2517000949
   10      C      -1.7174556415     1.5389233425     0.4680758165
   11      C      -2.1986881869     2.0887818398    -0.8759030281
   12      C       0.7010682188     0.9472869469     0.3395946744
   13      H       5.2198010307     0.4054864383     0.1612770268
   14      H       4.2793936152    -1.1100786595    -0.2227247850
   15      H       3.1878900825     1.6616440079     0.4740908733
   16      H       2.2851479451    -1.8960173615    -0.5527264062
   17      H      -0.0327732888    -2.6452565777    -0.7342844142
   18      H      -2.5045632972    -1.7181671300    -1.2307787200
   19      H      -2.8750540663    -1.1037118696     1.7424679155
   20      H      -4.0875270855    -1.8748628806     0.6088459847
   21      H      -1.3426274842     2.3611340549     1.0808669418
   22      H      -2.5607441769     1.0846475993     0.9862989341
   23      H      -1.3725116690     2.5437459473    -1.4182882742
   24      H      -2.9718468690     2.8389080865    -0.7257115910
   25      H      -2.6084900975     1.2857724422    -1.4845097868
   26      H       0.9062533048     1.9698104016     0.6283915120
 ----------------------------------------------------------------

    8    -465.6687103566      5.36e-06  Convergence criterion met
 Total energy in the final basis set =     -465.6687103566

                    Orbital Energies (a.u.)
 --------------------------------------------------------------

 Alpha MOs
 -- Occupied --
-10.1898 -10.1893 -10.1890 -10.1879 -10.1867 -10.1826 -10.1808 -10.1803
-10.1795 -10.1784 -10.1764 -10.1695  -0.8665  -0.8086  -0.7812  -0.7637
 -0.7268  -0.7086  -0.6403  -0.6142  -0.5947  -0.5714  -0.5362  -0.4974
 -0.4869  -0.4640  -0.4446  -0.4391  -0.4308  -0.4189  -0.4049  -0.3895
 -0.3871  -0.3714  -0.3574  -0.3531  -0.3455  -0.3289  -0.3234  -0.2970
 -0.2645  -0.2421  -0.2127

          Ground-State Mulliken Net Atomic Charges

     Atom                 Charge (a.u.)
  ----------------------------------------
      1 C                    -0.354977
      2 C                    -0.112783
      3 C                     0.192693
      4 C                    -0.186859
      5 C                    -0.173221
      6 C                     0.073652
      7 C                    -0.152692
      8 C                    -0.318954
      9 C                     0.140501
     10 C                    -0.337237
     11 C                    -0.437081
     12 C                    -0.274094
     13 H                     0.142670
     14 H                     0.141663
     15 H                     0.125382
     16 H                     0.124202
     17 H                     0.126124
     18 H                     0.141590
     19 H                     0.147988
     20 H                     0.142633
     21 H                     0.137965
     22 H                     0.149101
     23 H                     0.148499
     24 H                     0.142187
     25 H                     0.151564
     26 H                     0.119482
  ----------------------------------------
  Sum of atomic charges =     0.000000

                    Cartesian Multipole Moments
 -----------------------------------------------------------------
    Charge (ESU x 10^10)
                 0.0000
    Dipole Moment (Debye)
         X      -0.4472      Y       0.0287      Z      -0.0615
       Tot       0.4523
    Quadrupole Moments (Debye-Ang)
        XX     -67.3313     XY       0.8449     YY     -68.4054
        XZ      -0.4445     YZ       2.8850     ZZ     -73.9773

 Total job time:  29.22s(wall), 29.06s(cpu)
        *  Thank you very much for using Q-Chem.  Have a nice day.  *
