 Q-Chem 5.2, Q-Chem, Inc., Pleasanton, CA (2019)
 Q-Chem 5.2.1 for Intel X86 EM64T Linux

User input:
--------------------------------------------------------------
$molecule
0 1
C         1.95381895030000    4.14881542370000   -2.29334239920000
C         0.63230785070000    4.13925008150000   -2.41519242460000
C        -0.31526231390000    3.38732321880000   -1.59931568230000
C        -1.68030276310000    3.55167572070000   -1.83208541400000
C        -2.63185437860000    2.86370538220000   -1.08761775140000
C        -4.04491691720000    3.07663400630000   -1.38369876870000
C        -5.06954717550000    2.36377985570000   -0.93245872410000
C        -2.20795988380000    1.99367721760000   -0.08191156760000
C        -0.85410458330000    1.81486613150000    0.16197777440000
O        -0.32461411040000    1.00786367980000    1.12776833680000
C        -1.16074718620000    0.13561160690000    1.85599671920000
C        -1.61881893080000   -1.07831612060000    1.03979931370000
C        -0.45344567300000   -1.84345461930000    0.41174418160000
C         0.43794449200000   -2.54112587300000    1.43657490700000
C         1.51788504410000   -3.37784552180000    0.75408710740000
C         2.42876245870000   -4.06512433300000    1.77920270350000
C         3.50431164300000   -4.86875520720000    1.07489494730000
O         3.52084860660000   -6.06223819960000    1.00951725450000
O         4.46539031710000   -4.13184641450000    0.48646627280000
C         0.08400049340000    2.51069366520000   -0.59767508440000
H         2.57148634050000    4.74140408550000   -2.94627333850000
H         2.47435912440000    3.57662236770000   -1.54499141880000
H         0.17413109950000    4.74507081850000   -3.18769709410000
H        -2.00623986490000    4.22646697910000   -2.61109530990000
H        -4.24045005690000    3.90063993580000   -2.05907020320000
H        -4.95188823750000    1.51911393220000   -0.27506819800000
H        -6.08149696810000    2.59794322780000   -1.21508955930000
H        -2.94838403510000    1.48137195680000    0.50918767350000
H        -2.02911193870000    0.67026535510000    2.26122483710000
H        -0.54519122030000   -0.18859352040000    2.69879548720000
H        -2.27890831800000   -0.74210657240000    0.23781688660000
H        -2.18977203550000   -1.73605845170000    1.69784759530000
H         0.14705125770000   -1.14608746870000   -0.17614883390000
H        -0.85930246870000   -2.59178784950000   -0.27259673940000
H        -0.17257609520000   -3.18726967780000    2.07116978460000
H         0.91617491380000   -1.79644504340000    2.07509164520000
H         2.10672230020000   -2.73076839180000    0.09755184040000
H         1.04971934870000   -4.14139364230000    0.12960751800000
H         1.84091097940000   -4.74603302040000    2.39496186200000
H         2.89282227670000   -3.31722393500000    2.42837277110000
H         4.33031890030000   -3.18352972830000    0.61363656350000
H         1.12614881530000    2.34879558450000   -0.37679662830000
$end

$rem
BASIS = 6-31G*
GUI = 2
METHOD = B3LYP
PRINT_ORBITALS false
MOLDEN_FORMAT false
--------------------------------------------------------------

             Standard Nuclear Orientation (Angstroms)
    I     Atom           X                Y                Z
 ----------------------------------------------------------------
    1      C      -2.9631815305    -4.2003303408    -0.1215268496
    2      C      -3.6683766559    -3.1478732245     0.2739024924
    3      C      -3.3309208899    -1.7430378864     0.0701885723
    4      C      -4.2293884150    -0.7672496395     0.5004470114
    5      C      -3.9647652106     0.5874668636     0.3340032664
    6      C      -4.9441088816     1.5589732524     0.8102485984
    7      C      -4.7730641141     2.8698199468     0.9288673801
    8      C      -2.7744539114     0.9759478012    -0.2826992956
    9      C      -1.8670578173     0.0195540023    -0.7143505674
   10      O      -0.6841381277     0.2796842837    -1.3447455015
   11      C      -0.2137689371     1.6059557282    -1.4448237513
   12      C       0.3290460250     2.1524417415    -0.1195564539
   13      C       1.3913423520     1.2463926549     0.5038106670
   14      C       2.6869275072     1.1856849609    -0.3020263524
   15      C       3.7494725266     0.3578606211     0.4176026544
   16      C       5.0466936647     0.2769471359    -0.3970028580
   17      C       6.0742869953    -0.5689706223     0.3290502659
   18      O       7.0402630590    -0.1313350696     0.8806975575
   19      O       5.8151777886    -1.8902500615     0.3352271661
   20      C      -2.1489758936    -1.3330740268    -0.5348814323
   21      H      -3.2982764414    -5.2042592791     0.0755295534
   22      H      -2.0331099534    -4.1114506875    -0.6558146229
   23      H      -4.6000296969    -3.3113451016     0.8021143076
   24      H      -5.1508658219    -1.0705100087     0.9772563985
   25      H      -5.8932446136     1.1283679132     1.1053180126
   26      H      -3.8518835256     3.3662594426     0.6750158442
   27      H      -5.5594471808     3.5053697406     1.2982360152
   28      H      -2.5842696393     2.0254953949    -0.4322409559
   29      H      -0.9926713417     2.2707727338    -1.8390967463
   30      H       0.5873648431     1.5537924080    -2.1863030357
   31      H      -0.4942398313     2.2526772213     0.5904322222
   32      H       0.7427516498     3.1456511403    -0.3040089114
   33      H       0.9787514991     0.2402221374     0.6034368785
   34      H       1.6152068890     1.6149907968     1.5073369184
   35      H       3.0646672348     2.1979285112    -0.4620999468
   36      H       2.4914477895     0.7406299469    -1.2790991305
   37      H       3.3540885468    -0.6453317704     0.6013231413
   38      H       3.9691945599     0.8075835137     1.3879794659
   39      H       5.4596094908     1.2769268304    -0.5308179343
   40      H       4.8440484135    -0.1534824298    -1.3817838427
   41      H       5.0043214860    -2.1074893591    -0.1433543336
   42      H      -1.4220769992    -2.0466461280    -0.8863131605
 ----------------------------------------------------------------

    9    -886.6919197838      3.07e-06  Convergence criterion met
 Total energy in the final basis set =     -886.6919197838

                    Orbital Energies (a.u.)
 --------------------------------------------------------------

 Alpha MOs
 -- Occupied --
-19.1933 -19.1803 -19.1275 -10.3128 -10.2510 -10.2460 -10.2046 -10.2025
-10.1998 -10.1986 -10.1938 -10.1923 -10.1923 -10.1920 -10.1881 -10.1871
-10.1843 -10.1841 -10.1836 -10.1823  -1.1018  -1.0713  -1.0182  -0.8693
 -0.8290  -0.8085  -0.7982  -0.7764  -0.7470  -0.7292  -0.7214  -0.6789
 -0.6436  -0.6312  -0.6165  -0.6038  -0.5958  -0.5684  -0.5459  -0.5262
 -0.5141  -0.5045  -0.4975  -0.4927  -0.4764  -0.4752  -0.4570  -0.4535
 -0.4441  -0.4430  -0.4299  -0.4240  -0.4167  -0.4104  -0.4015  -0.3919
 -0.3854  -0.3781  -0.3727  -0.3673  -0.3643  -0.3570  -0.3522  -0.3506
 -0.3458  -0.3339  -0.3271  -0.3201  -0.3193  -0.3121  -0.2640  -0.2630
 -0.2231  -0.2192

          Ground-State Mulliken Net Atomic Charges

     Atom                 Charge (a.u.)
  ----------------------------------------
      1 C                    -0.351202
      2 C                    -0.112998
      3 C                     0.192203
      4 C                    -0.285466
      5 C                     0.179442
      6 C                    -0.111389
      7 C                    -0.354020
      8 C                    -0.257351
      9 C                     0.398130
     10 O                    -0.530789
     11 C                    -0.045756
     12 C                    -0.295609
     13 C                    -0.256469
     14 C                    -0.259117
     15 C                    -0.273004
     16 C                    -0.375036
     17 C                     0.587238
     18 O                    -0.434393
     19 O                    -0.559930
     20 C                    -0.250346
     21 H                     0.145330
     22 H                     0.143420
     23 H                     0.127978
     24 H                     0.124150
     25 H                     0.129718
     26 H                     0.139730
     27 H                     0.145900
     28 H                     0.131901
     29 H                     0.143250
     30 H                     0.153685
     31 H                     0.151646
     32 H                     0.137437
     33 H                     0.153516
     34 H                     0.136964
     35 H                     0.136379
     36 H                     0.138245
     37 H                     0.130543
     38 H                     0.162425
     39 H                     0.176108
     40 H                     0.146777
     41 H                     0.410909
     42 H                     0.129853
  ----------------------------------------
  Sum of atomic charges =     0.000000

                    Cartesian Multipole Moments
 -----------------------------------------------------------------
    Charge (ESU x 10^10)
                 0.0000
    Dipole Moment (Debye)
         X      -3.8633      Y       1.0948      Z      -1.8221
       Tot       4.4095
    Quadrupole Moments (Debye-Ang)
        XX    -160.7906     XY       2.6537     YY    -109.5118
        XZ     -18.3345     YZ       0.6680     ZZ    -122.6711

 Total job time:  76.88s(wall), 76.66s(cpu)
        *  Thank you very much for using Q-Chem.  Have a nice day.  *
