 Q-Chem 5.4, Q-Chem, Inc., Pleasanton, CA (2021)
 Q-Chem 5.4.2 for Intel X86 EM64T Linux

User input:
--------------------------------------------------------------
$molecule
0 1
C           -4.52729762440000       -0.43473663090000        0.56047588990000
C           -3.64671655660000        0.33101538640000       -0.07033291180000
C           -2.20438450830000        0.09967290950000       -0.09687552250000
C           -1.69747956580000       -1.19725543660000       -0.05308058290000
C           -0.34229281400000       -1.47175325120000       -0.08539590370000
C            0.12830024910000       -2.89479545380000       -0.02729785920000
C            0.55844343480000       -0.39741825070000       -0.16174721350000
C            1.99050584420000       -0.65630165400000       -0.21107781060000
C            2.97554863630000        0.18328854630000        0.06819167820000
F            2.89218983030000        1.44446389000000        0.47920739830000
F            4.26432717110000       -0.15473914150000       -0.01520544480000
C            0.05281280450000        0.90177035440000       -0.21052903910000
C           -1.30353311840000        1.17088969940000       -0.18243327680000
C           -1.78222203350000        2.59102941080000       -0.22408401280000
H           -5.58144368990000       -0.21654547830000        0.54053566090000
H           -4.23165397240000       -1.29497288750000        1.13747657130000
H           -3.99384805360000        1.20589075240000       -0.60379109910000
H           -2.39441772530000       -2.02154939750000       -0.01147278340000
H           -0.71750780730000       -3.56680243770000        0.09336506250000
H            0.80866104590000       -3.04558025330000        0.80947885630000
H            0.64919662700000       -3.16882835700000       -0.94475553340000
H            2.30934032780000       -1.64646198250000       -0.49840950170000
H            0.73808200590000        1.73128282260000       -0.28562058410000
H           -0.94046289070000        3.27742223180000       -0.18280929880000
H           -2.44246753560000        2.79962428590000        0.61616633230000
H           -2.33504704500000        2.78345523720000       -1.14384151370000
$end

$rem
BASIS = 6-31G*
GUI = 2
METHOD = B3LYP
PRINT_ORBITALS false
MOLDEN_FORMAT false
$end
--------------------------------------------------------------

             Standard Nuclear Orientation (Angstroms)
    I     Atom           X                Y                Z
 ----------------------------------------------------------------
    1      C       4.3985294029    -0.5045453102    -0.5375867581
    2      C       3.5298528846     0.2850257638     0.0802299939
    3      C       2.0831866439     0.0819578854     0.1018127190
    4      C       1.5514199459    -1.2053177282     0.0695725929
    5      C       0.1910148341    -1.4531537042     0.0978519690
    6      C      -0.3068247442    -2.8673727021     0.0528774819
    7      C      -0.6890608847    -0.3608042830     0.1577725569
    8      C      -2.1261077446    -0.5913536174     0.2024961014
    9      C      -3.0932604974     0.2640173774    -0.0910485600
   10      F      -2.9833847551     1.5187302728    -0.5153936220
   11      F      -4.3887585647    -0.0480547240    -0.0106516019
   12      C      -0.1585491841     0.9288107281     0.1949678697
   13      C       1.2028894285     1.1712936891     0.1709725797
   14      C       1.7088487595     2.5822726873     0.1995747351
   15      H       5.4566008853    -0.3065970975    -0.5145615039
   16      H       4.0891150927    -1.3652111160    -1.1066724527
   17      H       3.8912457103     1.1588497393     0.6058835921
   18      H       2.2324204373    -2.0433591887     0.0406004966
   19      H       0.5263661704    -3.5569195397    -0.0560364929
   20      H      -0.9858106410    -3.0141814387    -0.7857210442
   21      H      -0.8375047626    -3.1211289582     0.9705605062
   22      H      -2.4655339669    -1.5719246769     0.4989798982
   23      H      -0.8279484365     1.7722129632     0.2574247680
   24      H       0.8807914737     3.2843364823     0.1464266369
   25      H       2.3771949594     2.7687612498    -0.6394675526
   26      H       2.2607198909     2.7740969265     1.1200304743
 ----------------------------------------------------------------

    9    -664.1467790806      7.57e-06  Convergence criterion met
 Total energy in the final basis set =     -664.1467790806

                    Orbital Energies (a.u.)
 --------------------------------------------------------------

 Alpha MOs
 -- Occupied --
-24.7410 -24.7310 -10.3538 -10.1993 -10.1980 -10.1918 -10.1898 -10.1879
-10.1875 -10.1827 -10.1798 -10.1794 -10.1792 -10.1788  -1.2815  -1.2206
 -0.8712  -0.8184  -0.7851  -0.7756  -0.7231  -0.7183  -0.6588  -0.6463
 -0.6161  -0.5860  -0.5664  -0.5520  -0.5174  -0.5157  -0.4864  -0.4809
 -0.4485  -0.4395  -0.4368  -0.4338  -0.4266  -0.4232  -0.4145  -0.4096
 -0.4005  -0.3944  -0.3749  -0.3716  -0.3550  -0.3354  -0.3288  -0.3070
 -0.2643  -0.2380  -0.2068

          Ground-State Mulliken Net Atomic Charges

     Atom                 Charge (a.u.)
  ----------------------------------------
      1 C                    -0.338828
      2 C                    -0.131062
      3 C                     0.123179
      4 C                    -0.265873
      5 C                     0.130372
      6 C                    -0.539090
      7 C                     0.152017
      8 C                    -0.313834
      9 C                     0.550063
     10 F                    -0.235484
     11 F                    -0.251464
     12 C                    -0.272473
     13 C                     0.128318
     14 C                    -0.537080
     15 H                     0.141539
     16 H                     0.143448
     17 H                     0.131507
     18 H                     0.121537
     19 H                     0.159511
     20 H                     0.165470
     21 H                     0.162328
     22 H                     0.160474
     23 H                     0.128310
     24 H                     0.158251
     25 H                     0.166934
     26 H                     0.161931
  ----------------------------------------
  Sum of atomic charges =     0.000000

                    Cartesian Multipole Moments
 -----------------------------------------------------------------
    Charge (ESU x 10^10)
                 0.0000
    Dipole Moment (Debye)
         X       0.9162      Y      -0.5659      Z       0.2564
       Tot       1.1070
    Quadrupole Moments (Debye-Ang)
        XX     -80.9002     XY       2.4274     YY     -74.6143
        XZ      -0.7741     YZ       1.3311     ZZ     -82.3716

 Total job time:  71.28s(wall), 62.04s(cpu)
        *  Thank you very much for using Q-Chem.  Have a nice day.  *
