 Q-Chem 5.2, Q-Chem, Inc., Pleasanton, CA (2019)
 Q-Chem 5.2.1 for Intel X86 EM64T Linux

User input:
--------------------------------------------------------------
$molecule
0 1
C         3.25834726700000    2.84525713210000    1.51467863000000
C         3.44210596160000    1.65656329750000    0.94960087330000
C         2.39495115010000    0.79205408490000    0.45517976720000
C         1.04109141580000    0.99698267550000    0.52925997830000
N         0.36842828420000   -0.04402894760000   -0.04923396100000
Si       -1.39993706880000   -0.15065733440000   -0.13647298590000
C        -2.05922148480000    0.09862989770000    1.66418799240000
C        -1.07028784570000   -0.42320043350000    2.71036052150000
C        -2.43509862660000    1.53803036970000    2.01401552950000
C        -1.94593905670000    1.12484426120000   -1.47515397150000
C        -3.46487244940000    1.16795546890000   -1.64234935760000
C        -1.40075935120000    2.53679598740000   -1.26563213730000
C        -1.99387661920000   -1.88671712040000   -0.72495715460000
C        -1.66627715810000   -2.18398026130000   -2.18832994400000
C        -1.51558456790000   -3.03202841820000    0.16710153970000
C         1.30822964090000   -0.92677252380000   -0.49881530380000
C         2.56969680550000   -0.46846368610000   -0.21554845040000
C         3.82740866290000   -1.10986580760000   -0.52398813830000
C         3.96724555410000   -2.29923684440000   -1.10005642120000
H         4.08692240310000    3.43807263630000    1.86223697020000
H         2.27886235630000    3.27110932120000    1.64980354870000
H         4.45107788820000    1.28194344010000    0.83703119440000
H         0.50286260840000    1.81640275420000    0.95906343210000
H        -2.97486859040000   -0.49739376210000    1.75359636280000
H        -0.16268089830000    0.17510996610000    2.71302312810000
H        -0.78874921590000   -1.45367021320000    2.51419600910000
H        -1.51329071420000   -0.37259599000000    3.70403875350000
H        -1.56524060420000    2.18852876980000    1.97317485020000
H        -2.83633287480000    1.58457487770000    3.02582206270000
H        -3.19015991710000    1.92567846360000    1.33594659030000
H        -1.52587740500000    0.77244761810000   -2.42484405210000
H        -3.94579424160000    1.52919720430000   -0.73704677130000
H        -3.86209104670000    0.18127206740000   -1.86503895640000
H        -3.73821952200000    1.83661967080000   -2.45733582460000
H        -1.79240537520000    2.97886369040000   -0.35405129530000
H        -1.69009831070000    3.17625229120000   -2.09878311650000
H        -0.31538770960000    2.52643302120000   -1.21000993830000
H        -3.08758478960000   -1.86978541330000   -0.64805331120000
H        -0.59446635610000   -2.18784778330000   -2.36461193140000
H        -2.11312940680000   -1.44352988320000   -2.84593017190000
H        -2.05621022740000   -3.16179214290000   -2.46942132130000
H        -0.43077104620000   -3.07402434190000    0.21256542580000
H        -1.87517735720000   -3.98545420020000   -0.21877334380000
H        -1.89561182280000   -2.91665611440000    1.17844546190000
H         1.01611772160000   -1.82574542320000   -0.99889924400000
H         4.71523463730000   -0.55444607550000   -0.25113844280000
H         3.12207260140000   -2.89908068300000   -1.39113719090000
H         4.93877850910000   -2.71718330130000   -1.30072091240000
$end

$rem
BASIS = 6-31G*
GUI = 2
METHOD = B3LYP
PRINT_ORBITALS false
MOLDEN_FORMAT false
--------------------------------------------------------------

             Standard Nuclear Orientation (Angstroms)
    I     Atom           X                Y                Z
 ----------------------------------------------------------------
    1      C       3.5166510188    -2.9990243890     0.0966274893
    2      C       3.6141798295    -1.6737536158     0.1114149854
    3      C       2.5021370996    -0.7508664244     0.1100707783
    4      C       1.1673269784    -1.0548701922     0.0308026595
    5      N       0.4152790304     0.0872982062     0.0574739782
    6      Si     -1.3556499400     0.1063539704    -0.0402180979
    7      C      -1.8350332792    -0.9236973017    -1.6049436377
    8      C      -0.7661477912    -0.8310657780    -2.6974988136
    9      C      -2.1373278232    -2.3968288324    -1.3328441113
   10      C      -1.9910769242    -0.5149399900     1.6707218879
   11      C      -3.5172979617    -0.5812464459     1.7275050127
   12      C      -1.3907495727    -1.8443806035     2.1256094715
   13      C      -2.0490035009     1.8859464063    -0.2957430247
   14      C      -1.8691493292     2.7951599724     0.9200406200
   15      C      -1.5196228719     2.5742610135    -1.5536178676
   16      C       1.2843366397     1.1360341907     0.1548284947
   17      C       2.5787885708     0.6834487040     0.1886971175
   18      C       3.7840418059     1.4748795021     0.2855101831
   19      C       3.8368051082     2.8025771411     0.3066643624
   20      H       4.3899920857    -3.6283392232     0.0980411469
   21      H       2.5661163225    -3.5043309978     0.0844396604
   22      H       4.5975674259    -1.2223877395     0.1273523607
   23      H       0.6943304861    -2.0120694216    -0.0461029774
   24      H      -2.7538563538    -0.4820673205    -2.0079012024
   25      H       0.1534282763    -1.3142534872    -2.3771204617
   26      H      -0.5322226598     0.2013814817    -2.9402830215
   27      H      -1.1118317868    -1.3260177168    -3.6039942264
   28      H      -1.2580211081    -2.9112028211    -0.9537554550
   29      H      -2.4398426771    -2.8930870883    -2.2543213386
   30      H      -2.9423279219    -2.5089045752    -0.6120251656
   31      H      -1.6721923021     0.2326381735     2.4069188192
   32      H      -3.9007014659    -1.3219608440     1.0305845957
   33      H      -3.9601770388     0.3790136152     1.4771529716
   34      H      -3.8482748806    -0.8582029011     2.7273963965
   35      H      -1.6825405762    -2.6550274215     1.4641717644
   36      H      -1.7401421708    -2.0882864229     3.1282044624
   37      H      -0.3056485363    -1.7884482967     2.1513026284
   38      H      -3.1297117275     1.7674437715    -0.4386601351
   39      H      -0.8192637610     2.9425069365     1.1564678986
   40      H      -2.3560018615     2.3755045083     1.7959662204
   41      H      -2.3100532480     3.7725938587     0.7266421476
   42      H      -0.4368876748     2.6630435636    -1.5323305189
   43      H      -1.9395697866     3.5759700466    -1.6399354413
   44      H      -1.7992245083     2.0173692768    -2.4436979372
   45      H       0.9222271794     2.1412360341     0.1996792175
   46      H       4.7082875331     0.9148090712     0.3426411216
   47      H       2.9520895138     3.4132654153     0.2501301790
   48      H       4.7734511901     3.3279673523     0.3806981700
 ----------------------------------------------------------------

    9   -1009.5115214226      1.92e-06  Convergence criterion met
 Total energy in the final basis set =    -1009.5115214226

                    Orbital Energies (a.u.)
 --------------------------------------------------------------

 Alpha MOs
 -- Occupied --
-66.1442 -14.3597 -10.1958 -10.1957 -10.1832 -10.1821 -10.1795 -10.1792
-10.1790 -10.1788 -10.1785 -10.1785 -10.1772 -10.1721 -10.1715 -10.1696
-10.1683 -10.1643 -10.1633  -5.2869  -3.6476  -3.6452  -3.6444  -0.9682
 -0.8077  -0.7942  -0.7840  -0.7818  -0.7729  -0.7209  -0.7051  -0.6905
 -0.6871  -0.6840  -0.6217  -0.5995  -0.5958  -0.5783  -0.5740  -0.5504
 -0.5244  -0.5174  -0.4736  -0.4618  -0.4594  -0.4554  -0.4510  -0.4437
 -0.4301  -0.4270  -0.4212  -0.4164  -0.4134  -0.4083  -0.4058  -0.4020
 -0.3979  -0.3893  -0.3881  -0.3806  -0.3650  -0.3537  -0.3485  -0.3484
 -0.3411  -0.3396  -0.3367  -0.3350  -0.3325  -0.3221  -0.3076  -0.2849
 -0.2729  -0.2702  -0.1992  -0.1925

          Ground-State Mulliken Net Atomic Charges

     Atom                 Charge (a.u.)
  ----------------------------------------
      1 C                    -0.360215
      2 C                    -0.095407
      3 C                     0.039692
      4 C                    -0.058428
      5 N                    -0.511359
      6 Si                    0.901997
      7 C                    -0.291957
      8 C                    -0.459543
      9 C                    -0.463308
     10 C                    -0.279176
     11 C                    -0.467312
     12 C                    -0.469007
     13 C                    -0.294201
     14 C                    -0.464835
     15 C                    -0.462535
     16 C                    -0.053699
     17 C                     0.039037
     18 C                    -0.095904
     19 C                    -0.360424
     20 H                     0.134928
     21 H                     0.128170
     22 H                     0.125175
     23 H                     0.150625
     24 H                     0.140758
     25 H                     0.162699
     26 H                     0.155698
     27 H                     0.137864
     28 H                     0.150312
     29 H                     0.143196
     30 H                     0.150938
     31 H                     0.152147
     32 H                     0.150926
     33 H                     0.148676
     34 H                     0.145436
     35 H                     0.144278
     36 H                     0.139916
     37 H                     0.166099
     38 H                     0.146766
     39 H                     0.156323
     40 H                     0.151499
     41 H                     0.142439
     42 H                     0.156432
     43 H                     0.140870
     44 H                     0.151866
     45 H                     0.146083
     46 H                     0.124339
     47 H                     0.127896
     48 H                     0.134230
  ----------------------------------------
  Sum of atomic charges =     0.000000

                    Cartesian Multipole Moments
 -----------------------------------------------------------------
    Charge (ESU x 10^10)
                -0.0000
    Dipole Moment (Debye)
         X      -2.8961      Y       0.1592      Z      -0.1743
       Tot       2.9057
    Quadrupole Moments (Debye-Ang)
        XX    -125.1405     XY      -0.7558     YY    -124.0072
        XZ       0.5204     YZ       0.5211     ZZ    -129.6252

 Total job time:  126.34s(wall), 126.00s(cpu)
        *  Thank you very much for using Q-Chem.  Have a nice day.  *
