 Q-Chem 5.2, Q-Chem, Inc., Pleasanton, CA (2019)
 Q-Chem 5.2.1 for Intel X86 EM64T Linux

User input:
--------------------------------------------------------------
$molecule
0 1
C         4.24864510440000   -0.91476737870000   -0.08095034930000
C         3.30047743850000    0.01446753580000    0.00401255240000
C         1.88368822090000   -0.23332409230000    0.03501163960000
N         1.31866299480000   -1.46278787730000   -0.01673057490000
N        -0.01107943830000   -1.42912153530000    0.02510734270000
C        -0.33747864720000   -0.15107185460000    0.08433378290000
N        -1.64027839200000    0.29649858820000    0.20144121600000
C        -2.77999939170000   -0.43293884400000   -0.02342677210000
C        -4.03018589540000    0.37543925890000    0.27206544140000
O        -2.79023329070000   -1.56816463700000   -0.42116504890000
C         0.82030853820000    0.67506020890000    0.09293507530000
C         0.90893818510000    2.11589581240000    0.16098957780000
C         0.00473777780000    2.97428139520000   -0.30009584970000
H         5.29040543480000   -0.64791603820000   -0.09661061850000
H         4.03028009300000   -1.96770487230000   -0.13978173980000
H         3.57695906300000    1.05860439480000    0.05421605240000
H         1.78374623530000   -2.35207546240000   -0.09016924760000
H        -1.72977295290000    1.25666554470000    0.50276165830000
H        -4.03903726550000    0.68347460150000    1.31551812180000
H        -4.90438926120000   -0.23673363690000    0.07257495240000
H        -4.06439578910000    1.26284083040000   -0.35669403170000
H         1.81093205240000    2.49892696800000    0.62323334740000
H        -0.87913717230000    2.65908386250000   -0.82899151010000
H         0.14457907670000    4.03731532840000   -0.20444896460000
$end

$rem
BASIS = 6-31G*
GUI = 2
METHOD = B3LYP
PRINT_ORBITALS false
MOLDEN_FORMAT false
--------------------------------------------------------------

             Standard Nuclear Orientation (Angstroms)
    I     Atom           X                Y                Z
 ----------------------------------------------------------------
    1      C       4.2719982991    -0.8253869366    -0.0366835130
    2      C       3.2945235567     0.0750566960     0.0221598064
    3      C       1.8860236511    -0.2165988448     0.0489624723
    4      N       1.3602750622    -1.4640919667     0.0196146669
    5      N       0.0298598304    -1.4715178266     0.0518472605
    6      C      -0.3369329235    -0.2034375529     0.0816917924
    7      N      -1.6539680173     0.2051774411     0.1805501530
    8      C      -2.7685420976    -0.5644234028    -0.0363546587
    9      C      -4.0456299300     0.2101548222     0.2335200183
   10      O      -2.7402059967    -1.7075285608    -0.4099128654
   11      C       0.7942500339     0.6588053964     0.0804473249
   12      C       0.8370943136     2.1028330473     0.1184259625
   13      C      -0.0902016893     2.9223698291    -0.3668425642
   14      H       5.3049532624    -0.5261933406    -0.0510607120
   15      H       4.0872391192    -1.8856940841    -0.0745592917
   16      H       3.5377088088     1.1282212821     0.0519851012
   17      H       1.8535776947    -2.3396140373    -0.0317826573
   18      H      -1.7757761716     1.1681738161     0.4607726094
   19      H      -4.0718108373     0.5396562698     1.2701014051
   20      H      -4.8986926918    -0.4333554393     0.0412647139
   21      H      -4.1030675935     1.0826019957    -0.4141891643
   22      H       1.7231982638     2.5237746465     0.5784292939
   23      H      -0.9598365465     2.5683814716    -0.8948032536
   24      H       0.0154872545     3.9910640479    -0.2928995293
 ----------------------------------------------------------------

    9    -589.0083047678      7.49e-06  Convergence criterion met
 Total energy in the final basis set =     -589.0083047678

                    Orbital Energies (a.u.)
 --------------------------------------------------------------

 Alpha MOs
 -- Occupied --
-19.1073 -14.4088 -14.3678 -14.3425 -10.2835 -10.2453 -10.2316 -10.2099
-10.2050 -10.1964 -10.1932 -10.1876 -10.1862  -1.0593  -1.0347  -0.9396
 -0.8389  -0.8210  -0.7794  -0.7465  -0.7402  -0.6492  -0.6338  -0.6182
 -0.5883  -0.5487  -0.5113  -0.5043  -0.4858  -0.4710  -0.4610  -0.4585
 -0.4446  -0.4365  -0.4090  -0.4003  -0.3950  -0.3855  -0.3792  -0.3650
 -0.3241  -0.3192  -0.2963  -0.2837  -0.2373  -0.2185  -0.2146

          Ground-State Mulliken Net Atomic Charges

     Atom                 Charge (a.u.)
  ----------------------------------------
      1 C                    -0.358406
      2 C                    -0.072702
      3 C                     0.355945
      4 N                    -0.512381
      5 N                    -0.313409
      6 C                     0.512171
      7 N                    -0.702957
      8 C                     0.581649
      9 C                    -0.557387
     10 O                    -0.452332
     11 C                    -0.049848
     12 C                    -0.113307
     13 C                    -0.376119
     14 H                     0.154764
     15 H                     0.133559
     16 H                     0.140948
     17 H                     0.346579
     18 H                     0.331573
     19 H                     0.169373
     20 H                     0.188548
     21 H                     0.165857
     22 H                     0.137118
     23 H                     0.144573
     24 H                     0.146192
  ----------------------------------------
  Sum of atomic charges =     0.000000

                    Cartesian Multipole Moments
 -----------------------------------------------------------------
    Charge (ESU x 10^10)
                 0.0000
    Dipole Moment (Debye)
         X       2.3965      Y       3.2293      Z       1.0419
       Tot       4.1542
    Quadrupole Moments (Debye-Ang)
        XX     -64.3376     XY     -12.9151     YY     -74.3830
        XZ      -2.0458     YZ      -0.3937     ZZ     -78.3592

 Total job time:  31.92s(wall), 31.82s(cpu)
        *  Thank you very much for using Q-Chem.  Have a nice day.  *
