 Q-Chem 5.2, Q-Chem, Inc., Pleasanton, CA (2019)
 Q-Chem 5.2.1 for Intel X86 EM64T Linux

User input:
--------------------------------------------------------------
$molecule
0 1
C        -4.00006439640000    0.54705200120000   -0.02887812020000
C        -3.07146535340000   -0.39882419040000    0.05691316150000
C        -1.62354733940000   -0.23645578840000    0.04018235990000
C        -0.81716318920000   -1.37533771360000    0.07349318200000
C         0.56705974640000   -1.33837198670000    0.06080500950000
C         1.37551337720000   -2.55331054500000    0.10558940540000
C         0.96688737710000   -3.77165550110000   -0.22508479520000
C         1.23187033270000   -0.08941634260000    0.02682269080000
O         2.58273528590000   -0.13349850390000    0.01663736330000
C         3.34656141340000    1.05496123510000    0.00046256630000
C         0.43739752880000    1.05444310210000   -0.00509226680000
F         0.97676529550000    2.29842415910000   -0.04139722610000
C        -0.95077815470000    0.98291770970000   -0.00068732520000
F        -1.61078026350000    2.15467707580000   -0.02835870780000
H        -5.04554927770000    0.28978576240000   -0.00659284940000
H        -3.77421978000000    1.59313780140000   -0.12421312700000
H        -3.38466680960000   -1.43199834800000    0.14590266870000
H        -1.30243851310000   -2.33720676540000    0.12525302530000
H         2.39764049090000   -2.39932900270000    0.42061666760000
H        -0.02734929510000   -3.97616299600000   -0.58424837920000
H         1.62892345660000   -4.61752699620000   -0.16053637960000
H         4.38437290970000    0.72473117690000    0.00943550580000
H         3.15534828360000    1.67182090060000    0.88165698240000
H         3.16221766880000    1.64202783650000   -0.90213163710000
$end

$rem
BASIS = 6-31G*
GUI = 2
METHOD = B3LYP
PRINT_ORBITALS false
MOLDEN_FORMAT false
--------------------------------------------------------------

             Standard Nuclear Orientation (Angstroms)
    I     Atom           X                Y                Z
 ----------------------------------------------------------------
    1      C       4.0350026483     0.4068828822    -0.0314022640
    2      C       2.9001366247     1.0910106916     0.0601747278
    3      C       1.5383156311     0.5731021647     0.0421655064
    4      C       0.4736477436     1.4749183992     0.0824993215
    5      C      -0.8577265194     1.0943007271     0.0693330913
    6      C      -1.9433327669     2.0691873500     0.1216184964
    7      C      -1.8516169120     3.3529282067    -0.2013097956
    8      C      -1.1904294905    -0.2806779206     0.0273739912
    9      O      -2.5096881106    -0.5745092007     0.0172264971
   10      C      -2.9533320553    -1.9156813265    -0.0065623189
   11      C      -0.1360551450    -1.1902910242    -0.0115974239
   12      F      -0.3485142551    -2.5291821727    -0.0558255492
   13      C       1.1905248010    -0.7751685883    -0.0064960810
   14      F       2.1216268601    -1.7453322528    -0.0414234421
   15      H       4.9834457127     0.9163891588    -0.0073129375
   16      H       4.0767889816    -0.6618775797    -0.1333582991
   17      H       2.9461602321     2.1690719705     0.1557196437
   18      H       0.7040326059     2.5270276861     0.1403971429
   19      H      -2.8944180969     1.6634555955     0.4354891168
   20      H      -0.9401929983     3.8009131116    -0.5590028628
   21      H      -2.7034395432     4.0067551270    -0.1315572475
   22      H      -4.0406798628    -1.8545113301     0.0043043170
   23      H      -2.6132233835    -2.4708404376     0.8707667868
   24      H      -2.6297895636    -2.4327492379    -0.9128002224
 ----------------------------------------------------------------

    9    -700.0201635285      2.61e-06  Convergence criterion met
 Total energy in the final basis set =     -700.0201635285

                    Orbital Energies (a.u.)
 --------------------------------------------------------------

 Alpha MOs
 -- Occupied --
-24.7179 -24.7167 -19.1940 -10.2806 -10.2793 -10.2667 -10.2438 -10.2053
-10.2021 -10.1968 -10.1941 -10.1892 -10.1795 -10.1773  -1.2366  -1.2201
 -1.0837  -0.8796  -0.8103  -0.7893  -0.7514  -0.7345  -0.7021  -0.6480
 -0.6280  -0.5983  -0.5618  -0.5562  -0.5370  -0.5215  -0.4975  -0.4950
 -0.4721  -0.4706  -0.4537  -0.4511  -0.4452  -0.4342  -0.4202  -0.4038
 -0.3998  -0.3881  -0.3787  -0.3615  -0.3494  -0.3434  -0.3284  -0.3040
 -0.2714  -0.2318  -0.2097

          Ground-State Mulliken Net Atomic Charges

     Atom                 Charge (a.u.)
  ----------------------------------------
      1 C                    -0.360940
      2 C                    -0.109673
      3 C                     0.135758
      4 C                    -0.296593
      5 C                     0.111384
      6 C                    -0.101964
      7 C                    -0.346659
      8 C                     0.260100
      9 O                    -0.507878
     10 C                    -0.216121
     11 C                     0.271500
     12 F                    -0.293864
     13 C                     0.234965
     14 F                    -0.278228
     15 H                     0.140117
     16 H                     0.160225
     17 H                     0.130370
     18 H                     0.137953
     19 H                     0.150620
     20 H                     0.140575
     21 H                     0.144600
     22 H                     0.165035
     23 H                     0.163835
     24 H                     0.164884
  ----------------------------------------
  Sum of atomic charges =     0.000000

                    Cartesian Multipole Moments
 -----------------------------------------------------------------
    Charge (ESU x 10^10)
                 0.0000
    Dipole Moment (Debye)
         X      -1.2285      Y       0.3532      Z       0.0722
       Tot       1.2803
    Quadrupole Moments (Debye-Ang)
        XX     -72.8580     XY       6.3635     YY     -75.0082
        XZ      -0.6006     YZ      -0.1721     ZZ     -81.7995

 Total job time:  39.57s(wall), 39.10s(cpu)
        *  Thank you very much for using Q-Chem.  Have a nice day.  *
