 Q-Chem 5.2, Q-Chem, Inc., Pleasanton, CA (2019)
 Q-Chem 5.2.1 for Intel X86 EM64T Linux

User input:
--------------------------------------------------------------
$molecule
0 1
C         3.79477357520000   -1.83673552490000    0.43566292780000
C         3.52420922150000   -0.57805176220000    0.11092993340000
C         2.20056003010000    0.01151067510000   -0.03371745580000
C         1.00820058320000   -0.70201044730000    0.10966003410000
C        -0.20169310150000   -0.04126768920000   -0.03704113940000
C        -1.46572374120000   -0.85636140330000    0.06549977770000
F        -1.24044299880000   -2.16255450980000   -0.15629044130000
F        -2.02942979180000   -0.79080534950000    1.28795667240000
F        -2.41061838100000   -0.49422786430000   -0.81353977320000
C        -0.21746666030000    1.33173331370000   -0.31167275080000
C        -1.40881417720000    2.16859033510000   -0.43939693230000
C        -2.44072405260000    2.17504897100000    0.39169293080000
C         1.04085755450000    1.92908384500000   -0.47575656720000
N         2.18708917980000    1.31050036490000   -0.33941308100000
H         4.81035475290000   -2.18221030460000    0.52198526820000
H         3.03049904430000   -2.57036388850000    0.62885923200000
H         4.32408770430000    0.12628203430000   -0.07134681130000
H         1.02221949590000   -1.76003629230000    0.31332500590000
H        -1.36777766420000    2.87918646180000   -1.25543039350000
H        -2.50346614560000    1.52654411160000    1.24825919900000
H        -3.26405822510000    2.85310439320000    0.24913112800000
H         1.10362740420000    2.98180884040000   -0.72014830230000
$end

$rem
BASIS = 6-31G*
GUI = 2
METHOD = B3LYP
PRINT_ORBITALS false
MOLDEN_FORMAT false
--------------------------------------------------------------

             Standard Nuclear Orientation (Angstroms)
    I     Atom           X                Y                Z
 ----------------------------------------------------------------
    1      C       4.0429834790    -1.1060477277     0.2346032190
    2      C       3.5150474469     0.1030101367     0.0849234675
    3      C       2.0967454656     0.4220145738     0.0000142483
    4      C       1.0788661022    -0.5345037923     0.0196296527
    5      C      -0.2428401807    -0.1228765687    -0.0552067386
    6      C      -1.3103389226    -1.1867313702    -0.0916108295
    7      F      -0.8228953449    -2.3739153194    -0.4904538752
    8      F      -1.8620194368    -1.4119025558     1.1172768884
    9      F      -2.3191842569    -0.9062990462    -0.9284297559
   10      C      -0.5445146878     1.2422264462    -0.1345120456
   11      C      -1.8841971709     1.8255305841    -0.1654825775
   12      C      -2.8860780675     1.5020821296     0.6390084615
   13      C       0.5616443409     2.1027468253    -0.1897195276
   14      N       1.8122513625     1.7203097358    -0.1203945184
   15      H       5.1088713397    -1.2438330277     0.2903506675
   16      H       3.4486488327    -2.0009975937     0.3086438301
   17      H       4.1503807816     0.9753753249     0.0182374273
   18      H       1.3130710279    -1.5849350292     0.0728922922
   19      H      -1.9995711823     2.6373504472    -0.8727157836
   20      H      -2.8043061420     0.7401977242     1.3946845825
   21      H      -3.8330889380     2.0094223183     0.5778649679
   22      H       0.4032192612     3.1695965575    -0.2826196521
 ----------------------------------------------------------------

    9    -740.1121724653      3.66e-06  Convergence criterion met
 Total energy in the final basis set =     -740.1121724653

                    Orbital Energies (a.u.)
 --------------------------------------------------------------

 Alpha MOs
 -- Occupied --
-24.7287 -24.7267 -24.7251 -14.3377 -10.4380 -10.2390 -10.2335 -10.2318
-10.2227 -10.2139 -10.2038 -10.1970 -10.1937 -10.1920  -1.3120  -1.2195
 -1.2185  -0.9650  -0.8519  -0.8185  -0.7878  -0.7405  -0.7178  -0.6665
 -0.6461  -0.6029  -0.5903  -0.5869  -0.5836  -0.5402  -0.5163  -0.4979
 -0.4776  -0.4672  -0.4623  -0.4578  -0.4457  -0.4370  -0.4261  -0.4170
 -0.4141  -0.4031  -0.4002  -0.3876  -0.3684  -0.3628  -0.3283  -0.3021
 -0.2847  -0.2629  -0.2348

          Ground-State Mulliken Net Atomic Charges

     Atom                 Charge (a.u.)
  ----------------------------------------
      1 C                    -0.345414
      2 C                    -0.088795
      3 C                     0.300834
      4 C                    -0.211627
      5 C                    -0.040811
      6 C                     0.801878
      7 F                    -0.266817
      8 F                    -0.260457
      9 F                    -0.258965
     10 C                     0.090238
     11 C                    -0.142865
     12 C                    -0.323762
     13 C                    -0.002499
     14 N                    -0.472707
     15 H                     0.154840
     16 H                     0.148656
     17 H                     0.150280
     18 H                     0.159594
     19 H                     0.147316
     20 H                     0.162185
     21 H                     0.151494
     22 H                     0.147404
  ----------------------------------------
  Sum of atomic charges =     0.000000

                    Cartesian Multipole Moments
 -----------------------------------------------------------------
    Charge (ESU x 10^10)
                -0.0000
    Dipole Moment (Debye)
         X       0.1746      Y       0.3237      Z       0.1364
       Tot       0.3923
    Quadrupole Moments (Debye-Ang)
        XX     -74.0088     XY      -8.7087     YY     -76.6172
        XZ      -0.1506     YZ      -1.6353     ZZ     -79.8428

 Total job time:  34.10s(wall), 33.99s(cpu)
        *  Thank you very much for using Q-Chem.  Have a nice day.  *
