 Q-Chem 5.2, Q-Chem, Inc., Pleasanton, CA (2019)
 Q-Chem 5.2.1 for Intel X86 EM64T Linux

User input:
--------------------------------------------------------------
$molecule
0 1
C        -4.12772047040000    2.43900019180000   -0.89235558440000
C        -4.02217085540000    1.55859206060000    0.35228376150000
C        -5.28520208180000    0.71341968210000    0.52167300630000
O        -2.97242683170000    0.57509570650000    0.18564292740000
C        -1.70438215670000    0.95571223650000   -0.00348563110000
N        -0.90399192470000   -0.15424649070000   -0.17356685440000
C         0.49920797470000   -0.06366682690000   -0.17763280890000
C         1.17837811850000    0.87127865420000    0.59953549900000
C         2.55672817390000    0.92554389390000    0.58429997600000
C         3.30269633430000    0.04383428860000   -0.20034263920000
C         4.75392960770000    0.04453624800000   -0.25810199010000
C         5.60747323360000    0.80565265970000    0.41147868120000
F         5.33883168650000    1.75210427250000    1.30335820380000
F         6.93021176810000    0.70997474440000    0.27196339610000
C         2.61158240120000   -0.89189783580000   -0.97454988390000
C         1.23546468430000   -0.94706812780000   -0.96688185000000
C        -1.48777316760000   -1.43770115480000   -0.34675582000000
C        -2.39821051230000   -1.67152074490000   -1.36989869970000
C        -2.95581579860000   -2.92782061910000   -1.52064371280000
C        -2.60077522930000   -3.95710456270000   -0.66471830310000
C        -1.68335256100000   -3.72684232620000    0.34675072440000
C        -1.12756385940000   -2.47113435990000    0.50965301260000
O        -1.29482475970000    2.08921103390000   -0.02209541840000
C        -3.76721082980000    2.40078468510000    1.60160198330000
H        -4.28242825590000    1.82274421960000   -1.77575950310000
H        -3.21824255040000    3.01929253650000   -1.02172230700000
H        -4.96804470390000    3.11935751180000   -0.78759431270000
H        -5.43414176030000    0.08678670530000   -0.35373602120000
H        -6.14952573040000    1.35772464680000    0.65082718020000
H        -5.18698247800000    0.06859935380000    1.39084578340000
H         0.62490874400000    1.56359118690000    1.21145242740000
H         3.05148435270000    1.66057450260000    1.19719955110000
H         5.20911936110000   -0.66765088260000   -0.93154519730000
H         3.16500017180000   -1.58193742230000   -1.59454284940000
H         0.72122459050000   -1.67494489710000   -1.57660449000000
H        -2.66408533720000   -0.86892325890000   -2.04085971970000
H        -3.66491119290000   -3.10604281010000   -2.31543566810000
H        -3.03664459780000   -4.93713883320000   -0.78718424730000
H        -1.40247501940000   -4.52646456760000    1.01583232210000
H        -0.41191390980000   -2.28317641480000    1.29650070790000
H        -4.61197731410000    3.06123452440000    1.77549534250000
H        -2.87023166630000    3.00054689780000    1.47483942040000
H        -3.64046760400000    1.75410458540000    2.46741701720000
$end

$rem
BASIS = 6-31G*
GUI = 2
METHOD = B3LYP
PRINT_ORBITALS false
MOLDEN_FORMAT false
--------------------------------------------------------------

             Standard Nuclear Orientation (Angstroms)
    I     Atom           X                Y                Z
 ----------------------------------------------------------------
    1      C      -3.8380300077    -2.4693088060     1.3362407041
    2      C      -3.7427063128    -1.8939358467    -0.0762909419
    3      C      -5.0528071268    -1.2091734299    -0.4674344374
    4      O      -2.7704967009    -0.8215428627    -0.1184634404
    5      C      -1.4880539561    -1.0507026454     0.1838646142
    6      N      -0.7732167335     0.1261883974     0.1097313515
    7      C       0.6315693094     0.1460470362     0.1678086558
    8      C       1.4042110227    -0.8883242364    -0.3541938049
    9      C       2.7812830814    -0.8325542397    -0.2942941793
   10      C       3.4325971530     0.2603584459     0.2809242137
   11      C       4.8769232137     0.3834353233     0.3714170975
   12      C       5.8071010267    -0.4442426719    -0.0823356559
   13      F       5.6403851001    -1.5883411210    -0.7355068108
   14      F       7.1134160712    -0.2186094228     0.0621864885
   15      C       2.6481157674     1.2939016228     0.7995834390
   16      C       1.2728999702     1.2409230418     0.7468832327
   17      C      -1.4501742020     1.3667602331    -0.0343552150
   18      C      -2.4152474257     1.7600278114     0.8845372685
   19      C      -3.0633398316     2.9710775674     0.7255661700
   20      C      -2.7452921431     3.7994233417    -0.3378135813
   21      C      -1.7739731961     3.4128280450    -1.2460196279
   22      C      -1.1272391154     2.1994132779    -1.0990490022
   23      O      -1.0028281151    -2.1148702080     0.4754231696
   24      C      -3.3801371136    -2.9793927486    -1.0889191761
   25      H      -4.0703322419    -1.6797115423     2.0480554545
   26      H      -2.8968985553    -2.9332359705     1.6184962915
   27      H      -4.6247816810    -3.2174264030     1.3729516007
   28      H      -5.2797468924    -0.4109122473     0.2343278500
   29      H      -5.8649647502    -1.9297625933    -0.4633958682
   30      H      -4.9638638084    -0.7764003476    -1.4602577894
   31      H       0.9247913713    -1.7430539161    -0.8010285520
   32      H       3.3497262640    -1.6491735152    -0.7074586363
   33      H       5.2545174330     1.2641411549     0.8711308333
   34      H       3.1273122900     2.1482830304     1.2547979380
   35      H       0.6856541971     2.0483874299     1.1581651638
   36      H      -2.6524551092     1.1157656528     1.7174235893
   37      H      -3.8146372822     3.2731220369     1.4401254460
   38      H      -3.2519448581     4.7452130320    -0.4571118358
   39      H      -1.5216826924     4.0557787055    -2.0760329149
   40      H      -0.3690625563     1.8902531647    -1.8034641247
   41      H      -4.1698781411    -3.7244635431    -1.1241601221
   42      H      -2.4500240054    -3.4637591907    -0.8049582022
   43      H      -3.2630245447    -2.5418709902    -2.0782391580
 ----------------------------------------------------------------

    9   -1140.3440656927      5.54e-06  Convergence criterion met
 Total energy in the final basis set =    -1140.3440656927

                    Orbital Energies (a.u.)
 --------------------------------------------------------------

 Alpha MOs
 -- Occupied --
-24.7397 -24.7290 -19.1836 -19.1214 -14.3777 -10.3509 -10.3352 -10.2549
-10.2304 -10.2289 -10.1996 -10.1986 -10.1934 -10.1930 -10.1926 -10.1921
-10.1910 -10.1884 -10.1864 -10.1842 -10.1826 -10.1767 -10.1714 -10.1702
 -1.2803  -1.2194  -1.1122  -1.0202  -0.9686  -0.8662  -0.8550  -0.8157
 -0.7984  -0.7572  -0.7561  -0.7467  -0.7317  -0.6968  -0.6936  -0.6647
 -0.6398  -0.6236  -0.6163  -0.6084  -0.5923  -0.5683  -0.5554  -0.5385
 -0.5235  -0.5140  -0.5092  -0.4979  -0.4865  -0.4729  -0.4639  -0.4602
 -0.4510  -0.4478  -0.4435  -0.4386  -0.4362  -0.4359  -0.4286  -0.4250
 -0.4162  -0.4141  -0.4072  -0.3967  -0.3908  -0.3791  -0.3766  -0.3755
 -0.3686  -0.3632  -0.3565  -0.3562  -0.3495  -0.3453  -0.3331  -0.3178
 -0.2937  -0.2834  -0.2692  -0.2587  -0.2498  -0.2434  -0.1992

          Ground-State Mulliken Net Atomic Charges

     Atom                 Charge (a.u.)
  ----------------------------------------
      1 C                    -0.470367
      2 C                     0.307947
      3 C                    -0.449086
      4 O                    -0.509167
      5 C                     0.797389
      6 N                    -0.649812
      7 C                     0.312192
      8 C                    -0.144446
      9 C                    -0.214094
     10 C                     0.204319
     11 C                    -0.299450
     12 C                     0.539930
     13 F                    -0.235643
     14 F                    -0.251110
     15 C                    -0.207378
     16 C                    -0.168581
     17 C                     0.263073
     18 C                    -0.124249
     19 C                    -0.147256
     20 C                    -0.120027
     21 C                    -0.142478
     22 C                    -0.133675
     23 O                    -0.511120
     24 C                    -0.468262
     25 H                     0.142869
     26 H                     0.190552
     27 H                     0.144742
     28 H                     0.153013
     29 H                     0.146722
     30 H                     0.156456
     31 H                     0.157193
     32 H                     0.140448
     33 H                     0.157127
     34 H                     0.128470
     35 H                     0.147798
     36 H                     0.136737
     37 H                     0.132306
     38 H                     0.129948
     39 H                     0.133936
     40 H                     0.144999
     41 H                     0.143204
     42 H                     0.187967
     43 H                     0.146862
  ----------------------------------------
  Sum of atomic charges =     0.000000

                    Cartesian Multipole Moments
 -----------------------------------------------------------------
    Charge (ESU x 10^10)
                 0.0000
    Dipole Moment (Debye)
         X      -2.7939      Y       2.1282      Z      -0.2765
       Tot       3.5230
    Quadrupole Moments (Debye-Ang)
        XX    -133.1369     XY       4.3712     YY    -131.5880
        XZ      -0.6622     YZ       2.7102     ZZ    -134.9692

 Total job time:  134.80s(wall), 133.64s(cpu)
        *  Thank you very much for using Q-Chem.  Have a nice day.  *
