 Q-Chem 5.2, Q-Chem, Inc., Pleasanton, CA (2019)
 Q-Chem 5.2.1 for Intel X86 EM64T Linux

User input:
--------------------------------------------------------------
$molecule
0 1
C         2.95921749520000   -0.69360583090000    2.60252579760000
C         3.53515590090000   -0.10246145880000    1.56350892210000
C         2.80242575620000    0.28079096710000    0.36090801220000
C         3.44991848810000    0.93644184380000   -0.69126366470000
C         2.71351579230000    1.29284840440000   -1.80640421450000
C         1.36590937690000    0.97939155400000   -1.85105042420000
C         0.80353949060000    0.31222298480000   -0.75973621210000
C        -0.62661244580000   -0.05536906650000   -0.74466658920000
C        -1.27708254070000   -0.47350152380000   -1.90738147270000
C        -2.61894099230000   -0.80513081030000   -1.82599489290000
C        -3.26602903680000   -0.71176044800000   -0.60772154460000
C        -2.53591087090000   -0.29324294940000    0.50909484820000
C        -3.09985049050000   -0.16300296650000    1.84928541450000
C        -4.35000577940000   -0.42240869650000    2.21006326600000
N        -1.24729034240000    0.02316663440000    0.42186430990000
N         1.50850666940000   -0.01711633710000    0.30971819630000
H         3.51218558710000   -0.96855664690000    3.48442626300000
H         1.90529167340000   -0.91127988630000    2.58071444690000
H         4.59234612960000    0.13025298660000    1.56308802050000
H         4.50359787950000    1.16349448490000   -0.62657540900000
H         3.18227202060000    1.81118351560000   -2.63142296630000
H         0.75973784910000    1.26276840490000   -2.69760727390000
H        -0.74196659030000   -0.55746395950000   -2.84063557750000
H        -3.15375169170000   -1.13587520030000   -2.70558774910000
H        -4.31135954440000   -0.96181825120000   -0.52376288740000
H        -2.37871468460000    0.18042353590000    2.57822246260000
H        -5.09992346650000   -0.76759019240000    1.51816635140000
H        -4.67485277820000   -0.29741107310000    3.22886748630000
$end

$rem
BASIS = 6-31G*
GUI = 2
METHOD = B3LYP
PRINT_ORBITALS false
MOLDEN_FORMAT false
--------------------------------------------------------------

             Standard Nuclear Orientation (Angstroms)
    I     Atom           X                Y                Z
 ----------------------------------------------------------------
    1      C      -2.6948352958    -2.8802449125     0.6548983152
    2      C      -3.4043971588    -1.8114328098     0.3159655266
    3      C      -2.7999442178    -0.5131726178     0.0345726494
    4      C      -3.5900704070     0.5727943299    -0.3560250226
    5      C      -2.9734186433     1.7811041621    -0.6254335678
    6      C      -1.5995015795     1.8805173285    -0.4884647539
    7      C      -0.8897507348     0.7477960071    -0.0816028057
    8      C       0.5766704154     0.7865241023     0.0880872524
    9      C       1.2152682368     1.9199124419     0.5955078774
   10      C       2.5929518101     1.8919226612     0.7311191127
   11      C       3.2858682716     0.7536770115     0.3624803579
   12      C       2.5659822974    -0.3404327336    -0.1276179362
   13      C       3.1781535342    -1.5996906166    -0.5406761192
   14      C       4.4702341186    -1.8993382528    -0.5078234977
   15      N       1.2427542863    -0.3049150317    -0.2543979880
   16      N      -1.4816497202    -0.4090587866     0.1644021152
   17      H      -3.1544156961    -3.8325712326     0.8573347953
   18      H      -1.6235005348    -2.8113274802     0.7330621474
   19      H      -4.4822981605    -1.8564382771     0.2270199905
   20      H      -4.6601468770     0.4630174516    -0.4501691537
   21      H      -3.5550632535     2.6362022271    -0.9409592824
   22      H      -1.0865939116     2.8032806415    -0.7117100295
   23      H       0.6472586315     2.7870246930     0.8952468094
   24      H       3.1203271190     2.7504182333     1.1234946530
   25      H       4.3590578525     0.7128380405     0.4567678595
   26      H       2.4565884987    -2.3218707180    -0.8972257425
   27      H       5.2225185738    -1.2117592879    -0.1591812623
   28      H       4.8292719136    -2.8606141717    -0.8336340060
 ----------------------------------------------------------------

    9    -650.1781882002      3.07e-06  Convergence criterion met
 Total energy in the final basis set =     -650.1781882002

                    Orbital Energies (a.u.)
 --------------------------------------------------------------

 Alpha MOs
 -- Occupied --
-14.3181 -14.3163 -10.2238 -10.2231 -10.2226 -10.2216 -10.2047 -10.2034
-10.1951 -10.1946 -10.1935 -10.1924 -10.1848 -10.1824 -10.1808 -10.1730
 -0.9578  -0.9371  -0.8138  -0.8067  -0.8018  -0.7863  -0.7488  -0.7229
 -0.6575  -0.6482  -0.6292  -0.6057  -0.5726  -0.5539  -0.5215  -0.5060
 -0.4963  -0.4826  -0.4679  -0.4575  -0.4427  -0.4251  -0.4244  -0.4129
 -0.4063  -0.3957  -0.3938  -0.3818  -0.3710  -0.3539  -0.3465  -0.3137
 -0.3015  -0.2919  -0.2682  -0.2490  -0.2437  -0.2355  -0.2222

          Ground-State Mulliken Net Atomic Charges

     Atom                 Charge (a.u.)
  ----------------------------------------
      1 C                    -0.330587
      2 C                    -0.115552
      3 C                     0.326907
      4 C                    -0.184419
      5 C                    -0.099477
      6 C                    -0.171111
      7 C                     0.252040
      8 C                     0.249278
      9 C                    -0.167665
     10 C                    -0.102350
     11 C                    -0.173072
     12 C                     0.306677
     13 C                    -0.091874
     14 C                    -0.347651
     15 N                    -0.528564
     16 N                    -0.528322
     17 H                     0.139260
     18 H                     0.181367
     19 H                     0.122576
     20 H                     0.134257
     21 H                     0.138711
     22 H                     0.136825
     23 H                     0.137928
     24 H                     0.139336
     25 H                     0.134755
     26 H                     0.149980
     27 H                     0.141351
     28 H                     0.149395
  ----------------------------------------
  Sum of atomic charges =     0.000000

                    Cartesian Multipole Moments
 -----------------------------------------------------------------
    Charge (ESU x 10^10)
                 0.0000
    Dipole Moment (Debye)
         X       0.0970      Y       2.3403      Z       0.1600
       Tot       2.3477
    Quadrupole Moments (Debye-Ang)
        XX     -73.6519     XY      -0.3876     YY     -81.9037
        XZ       2.8569     YZ       0.5344     ZZ     -95.3070

 Total job time:  46.46s(wall), 46.32s(cpu)
        *  Thank you very much for using Q-Chem.  Have a nice day.  *
