 Q-Chem 5.2, Q-Chem, Inc., Pleasanton, CA (2019)
 Q-Chem 5.2.1 for Intel X86 EM64T Linux

User input:
--------------------------------------------------------------
$molecule
0 1
C         3.76258164750000   -1.00108559660000    0.07533087140000
C         2.61376831390000   -1.61228262440000   -0.20680550050000
C         1.27368011690000   -1.09078425950000   -0.09069609510000
S        -0.00478581210000   -2.26332540170000   -0.18864984910000
C        -1.25395222020000   -1.06421071080000   -0.08296210640000
C        -2.63615692410000   -1.47900260980000   -0.03080478950000
C        -3.62134043150000   -0.80912155550000    0.55802384880000
C        -0.69019369510000    0.18483619380000   -0.01141453790000
N        -1.46061351050000    1.41053243020000    0.07080016930000
O        -2.25659672580000    1.61882948970000   -0.80829639780000
O        -1.25698376860000    2.10132235150000    1.04015615690000
C         0.73209626680000    0.17880503990000    0.00211480630000
N         1.43759929190000    1.43028767330000   -0.03079287110000
O         2.47144883700000    1.53362443160000    0.58510229510000
O         0.92305283300000    2.30189375680000   -0.69557722430000
H         4.69565048640000   -1.51807470930000   -0.06832757230000
H         3.81630006010000    0.00300542050000    0.45650013600000
H         2.63082366570000   -2.64218694610000   -0.54359307720000
H        -2.82965899580000   -2.44066769710000   -0.48693348100000
H        -3.47606680950000    0.12539817700000    1.07120297610000
H        -4.62552550980000   -1.19362649270000    0.55327312690000
$end

$rem
BASIS = 6-31G*
GUI = 2
METHOD = B3LYP
PRINT_ORBITALS false
MOLDEN_FORMAT false
--------------------------------------------------------------

             Standard Nuclear Orientation (Angstroms)
    I     Atom           X                Y                Z
 ----------------------------------------------------------------
    1      C       3.8126140340     0.7267751444    -0.1741600296
    2      C       2.7098504991     1.4195724359     0.1031111616
    3      C       1.3378676034     0.9794341572     0.0308647502
    4      S       0.1370704552     2.2330919897     0.1040156061
    5      C      -1.1861777555     1.1118652026     0.0675831914
    6      C      -2.5406260440     1.6105810840     0.0226960865
    7      C      -3.5769790541     0.9818438921    -0.5220133015
    8      C      -0.7028089986    -0.1720452300     0.0361261611
    9      N      -1.5495268584    -1.3490330787     0.0159845594
   10      O      -2.3395306129    -1.4726512870     0.9162069346
   11      O      -1.4083733286    -2.0882148316    -0.9284691636
   12      C       0.7165560762    -0.2561518897    -0.0020446131
   13      N       1.3432651350    -1.5473849072     0.0685192959
   14      O       2.3563864395    -1.7393637452    -0.5604318719
   15      O       0.7885850440    -2.3585081347     0.7761933493
   16      H       4.7787059353     1.1891215040    -0.0672243893
   17      H       3.7962089576    -0.2926815207    -0.5159398246
   18      H       2.7976148116     2.4585985888     0.3983089730
   19      H      -2.6648772787     2.5994298369     0.4434524883
   20      H      -3.5002825383     0.0209002189    -1.0000188179
   21      H      -4.5549836066     1.4287406477    -0.5153295411
 ----------------------------------------------------------------

   10   -1116.7677287412      5.89e-06  Convergence criterion met
 Total energy in the final basis set =    -1116.7677287412

                    Orbital Energies (a.u.)
 --------------------------------------------------------------

 Alpha MOs
 -- Occupied --
-88.9539 -19.1972 -19.1946 -19.1939 -19.1938 -14.5919 -14.5890 -10.2792
-10.2775 -10.2756 -10.2706 -10.2296 -10.2292 -10.2142 -10.2096  -8.0155
 -5.9795  -5.9759  -5.9723  -1.2635  -1.2570  -1.0849  -1.0817  -0.9506
 -0.8530  -0.8452  -0.8003  -0.7921  -0.7183  -0.6971  -0.6523  -0.6214
 -0.6011  -0.5737  -0.5676  -0.5503  -0.5403  -0.5289  -0.5236  -0.5144
 -0.5007  -0.4764  -0.4690  -0.4377  -0.4243  -0.4065  -0.3954  -0.3933
 -0.3556  -0.3346  -0.3294  -0.3220  -0.3179  -0.3154  -0.3092  -0.2999
 -0.2845  -0.2431

          Ground-State Mulliken Net Atomic Charges

     Atom                 Charge (a.u.)
  ----------------------------------------
      1 C                    -0.333453
      2 C                    -0.104369
      3 C                    -0.154744
      4 S                     0.314568
      5 C                    -0.161630
      6 C                    -0.094355
      7 C                    -0.319108
      8 C                     0.293265
      9 N                     0.356129
     10 O                    -0.361482
     11 O                    -0.371781
     12 C                     0.327290
     13 N                     0.359862
     14 O                    -0.390277
     15 O                    -0.380934
     16 H                     0.158281
     17 H                     0.216769
     18 H                     0.149798
     19 H                     0.154272
     20 H                     0.175894
     21 H                     0.166006
  ----------------------------------------
  Sum of atomic charges =     0.000000

                    Cartesian Multipole Moments
 -----------------------------------------------------------------
    Charge (ESU x 10^10)
                -0.0000
    Dipole Moment (Debye)
         X       0.4777      Y       5.9949      Z      -0.2063
       Tot       6.0174
    Quadrupole Moments (Debye-Ang)
        XX     -81.0076     XY      -1.4197     YY     -95.5025
        XZ       3.6411     YZ       1.7887     ZZ     -94.8630

 Total job time:  45.12s(wall), 44.75s(cpu)
        *  Thank you very much for using Q-Chem.  Have a nice day.  *
