 Q-Chem 5.2, Q-Chem, Inc., Pleasanton, CA (2019)
 Q-Chem 5.2.1 for Intel X86 EM64T Linux

User input:
--------------------------------------------------------------
$molecule
0 1
C        -4.38878521540000   -0.52179818070000    0.87019023450000
C        -3.65083555930000    0.18795914170000    0.02621276790000
C        -2.19298281740000    0.15849879040000   -0.03580328860000
C        -1.46565697780000   -0.97515567360000    0.28401375480000
C        -0.07181566820000   -1.00365557150000    0.18176023650000
C         0.65095100990000   -2.23978221190000    0.45445154560000
C         1.75526378700000   -2.63398686670000   -0.16492477320000
C         0.54490949290000    0.18506792680000   -0.22185968340000
C         2.03485644930000    0.32972742240000   -0.28286451140000
O         2.67305124610000    0.61347472100000   -1.26092640310000
O         2.57005232200000    0.13669538460000    0.93080432230000
C         3.98417179820000    0.23916111550000    1.01560700850000
N        -0.12671880640000    1.28380531620000   -0.52848483240000
C        -1.45277213350000    1.29104033330000   -0.45774264240000
N        -2.05138170320000    2.45523006050000   -0.83814934430000
H        -5.46387602970000   -0.46993406100000    0.86119204960000
H        -3.94919321320000   -1.16965503280000    1.60966267300000
H        -4.13701818710000    0.84278987560000   -0.68621577400000
H        -1.98779040420000   -1.87330644180000    0.58178116330000
H         0.19189071240000   -2.88259592750000    1.19607562490000
H         2.21367073680000   -2.05105196940000   -0.94605646410000
H         2.23174291160000   -3.56929335280000    0.07562270080000
H         4.22407796810000    0.31855442340000    2.07286298310000
H         4.33338159740000    1.11859530810000    0.47088486270000
H         4.44925674250000   -0.65144909500000    0.58694616250000
H        -1.42016957560000    3.22428222630000   -0.99074482690000
H        -2.96733167900000    2.67460195400000   -0.48937507220000
$end

$rem
BASIS = 6-31G*
GUI = 2
METHOD = B3LYP
PRINT_ORBITALS false
MOLDEN_FORMAT false
--------------------------------------------------------------

             Standard Nuclear Orientation (Angstroms)
    I     Atom           X                Y                Z
 ----------------------------------------------------------------
    1      C       4.2686652241    -1.2356839002    -0.6309374424
    2      C       3.6386832291    -0.2395491356    -0.0214611651
    3      C       2.1893227835    -0.0758555892     0.0295999960
    4      C       1.3259408992    -1.1579791837     0.0233943539
    5      C      -0.0588803508    -0.9900813518     0.1136276414
    6      C      -0.9288498892    -2.1577294906     0.1807999446
    7      C      -2.0582794692    -2.2327285076     0.8716653548
    8      C      -0.5213916399     0.3287141973     0.1700557059
    9      C      -1.9819980524     0.6622020863     0.1722068300
   10      O      -2.5605082009     1.2762354342     1.0281853623
   11      O      -2.5627297787     0.2113321786    -0.9485763854
   12      C      -3.9562529501     0.4557002925    -1.0742824324
   13      N       0.2822716975     1.3805919407     0.1724761380
   14      C       1.5979683862     1.2091163554     0.1175891976
   15      N       2.3385171588     2.3523480137     0.1722635756
   16      H       5.3422631158    -1.3127100441    -0.6241807091
   17      H       3.7393123316    -2.0029602874    -1.1702440132
   18      H       4.2145218548     0.5214233980     0.4904586970
   19      H       1.7313046347    -2.1591851699    -0.0116821643
   20      H      -0.5655504368    -3.0285985196    -0.3516967661
   21      H      -2.4271625262    -1.4083311529     1.4585307878
   22      H      -2.6474005417    -3.1339941485     0.8903809311
   23      H      -4.2081371372     0.2720991578    -2.1156725817
   24      H      -4.1867676088     1.4856039396    -0.7945760347
   25      H      -4.5141210091    -0.2218582424    -0.4239453399
   26      H       1.8063923992     3.2038309441     0.1017268864
   27      H       3.2661577436     2.3568049066    -0.2126974097
 ----------------------------------------------------------------

    9    -686.3079779909      6.07e-06  Convergence criterion met
 Total energy in the final basis set =     -686.3079779909

                    Orbital Energies (a.u.)
 --------------------------------------------------------------

 Alpha MOs
 -- Occupied --
-19.1853 -19.1291 -14.3505 -14.3229 -10.3069 -10.2627 -10.2330 -10.2299
-10.2024 -10.2014 -10.2010 -10.1957 -10.1901 -10.1898 -10.1766  -1.1027
 -1.0125  -0.9747  -0.9017  -0.8323  -0.8070  -0.7575  -0.7451  -0.7154
 -0.6647  -0.6328  -0.5943  -0.5817  -0.5605  -0.5410  -0.5341  -0.4945
 -0.4896  -0.4729  -0.4683  -0.4604  -0.4541  -0.4372  -0.4233  -0.4150
 -0.4069  -0.3997  -0.3859  -0.3714  -0.3533  -0.3495  -0.3326  -0.3160
 -0.2976  -0.2801  -0.2764  -0.2521  -0.2494  -0.2030

          Ground-State Mulliken Net Atomic Charges

     Atom                 Charge (a.u.)
  ----------------------------------------
      1 C                    -0.335720
      2 C                    -0.148647
      3 C                     0.145945
      4 C                    -0.228948
      5 C                     0.143297
      6 C                    -0.119402
      7 C                    -0.360943
      8 C                     0.201442
      9 C                     0.534902
     10 O                    -0.468426
     11 O                    -0.421576
     12 C                    -0.221435
     13 N                    -0.554250
     14 C                     0.427192
     15 N                    -0.777675
     16 H                     0.147242
     17 H                     0.146904
     18 H                     0.135675
     19 H                     0.138945
     20 H                     0.130641
     21 H                     0.166288
     22 H                     0.141707
     23 H                     0.163538
     24 H                     0.175972
     25 H                     0.160974
     26 H                     0.344398
     27 H                     0.331961
  ----------------------------------------
  Sum of atomic charges =     0.000000

                    Cartesian Multipole Moments
 -----------------------------------------------------------------
    Charge (ESU x 10^10)
                -0.0000
    Dipole Moment (Debye)
         X       2.2163      Y      -0.8904      Z      -2.3378
       Tot       3.3422
    Quadrupole Moments (Debye-Ang)
        XX     -70.0872     XY       7.3202     YY     -79.5389
        XZ       2.9480     YZ      -3.2687     ZZ     -90.8059

 Total job time:  44.70s(wall), 44.56s(cpu)
        *  Thank you very much for using Q-Chem.  Have a nice day.  *
