 Q-Chem 5.4, Q-Chem, Inc., Pleasanton, CA (2021)
 Q-Chem 5.4.2 for Intel X86 EM64T Linux

User input:
--------------------------------------------------------------
$molecule
0 1
C            2.70718466680000       -2.64035692400000       -0.15749252870000
C            1.57811766050000       -2.02811078260000        0.17693415530000
C            1.34662821460000       -0.59675777520000        0.07707881360000
C            2.33941485260000        0.33995347890000        0.06363784380000
S            1.74631823060000        1.94586727500000       -0.02605891560000
C            0.13147149990000        1.38200855270000       -0.05248271490000
C            0.04640222910000        0.01757252800000        0.00861280090000
C           -1.18402461910000       -0.74304525370000       -0.02701206540000
C           -2.41665455280000       -0.25702045900000       -0.00971652920000
F           -2.77926485490000        1.02009689420000        0.05218071420000
F           -3.50745923870000       -1.01950034880000       -0.05202865470000
H            2.82200708630000       -3.70467236580000       -0.04787843290000
H            3.55104562020000       -2.10746615410000       -0.56081584940000
H            0.75355142570000       -2.61344244210000        0.56103457280000
H            3.39618451700000        0.17673867350000        0.12755015250000
H           -0.66704504250000        2.09238824680000       -0.11973784300000
H           -1.10663835060000       -1.81752681380000       -0.08222077610000
$end

$rem
BASIS = 6-31G*
GUI = 2
METHOD = B3LYP
PRINT_ORBITALS false
MOLDEN_FORMAT false
$end
--------------------------------------------------------------

             Standard Nuclear Orientation (Angstroms)
    I     Atom           X                Y                Z
 ----------------------------------------------------------------
    1      C       2.7346770166     2.4772433945     0.1552811945
    2      C       1.5793719017     1.9154413207    -0.1780765273
    3      C       1.2854092916     0.4955423723    -0.0790672110
    4      C       2.2361378252    -0.4838561897    -0.0677688054
    5      S       1.5732405830    -2.0622658202     0.0214417142
    6      C      -0.0152609245    -1.4280896031     0.0505677514
    7      C      -0.0404366466    -0.0611815854    -0.0092967830
    8      C      -1.2362396924     0.7526816455     0.0286569627
    9      C      -2.4890385335     0.3212474255     0.0126767278
   10      F      -2.9074436825    -0.9386673381    -0.0497584659
   11      F      -3.5452633511     1.1308363427     0.0571253601
   12      H       2.8959602909     3.5355883851     0.0463758039
   13      H       3.5548768022     1.9074716548     0.5569975852
   14      H       0.7807761723     2.5367396007    -0.5605540643
   15      H       3.2989660750    -0.3671301174    -0.1330153757
   16      H      -0.8440993590    -2.1027920101     0.1183522772
   17      H      -1.1116874363     1.8226818869     0.0846344406
 ----------------------------------------------------------------

    9    -906.2679521412      5.17e-06  Convergence criterion met
 Total energy in the final basis set =     -906.2679521412

                    Orbital Energies (a.u.)
 --------------------------------------------------------------

 Alpha MOs
 -- Occupied --
-88.9127 -24.7453 -24.7358 -10.3573 -10.2121 -10.2104 -10.2081 -10.2060
-10.2012 -10.1978 -10.1846  -7.9745  -5.9382  -5.9346  -5.9319  -1.2860
 -1.2259  -0.8954  -0.8112  -0.7970  -0.7273  -0.7156  -0.6403  -0.6124
 -0.5831  -0.5771  -0.5427  -0.5199  -0.5158  -0.4812  -0.4643  -0.4423
 -0.4387  -0.4320  -0.4143  -0.3984  -0.3956  -0.3830  -0.3676  -0.3466
 -0.3055  -0.3011  -0.2239  -0.2177

          Ground-State Mulliken Net Atomic Charges

     Atom                 Charge (a.u.)
  ----------------------------------------
      1 C                    -0.343619
      2 C                    -0.103742
      3 C                     0.136619
      4 C                    -0.416830
      5 S                     0.278520
      6 C                    -0.428076
      7 C                     0.159429
      8 C                    -0.282411
      9 C                     0.546908
     10 F                    -0.237796
     11 F                    -0.247841
     12 H                     0.145173
     13 H                     0.143064
     14 H                     0.134173
     15 H                     0.173877
     16 H                     0.179924
     17 H                     0.162628
  ----------------------------------------
  Sum of atomic charges =     0.000000

                    Cartesian Multipole Moments
 -----------------------------------------------------------------
    Charge (ESU x 10^10)
                 0.0000
    Dipole Moment (Debye)
         X       0.9052      Y       0.6140      Z      -0.0165
       Tot       1.0940
    Quadrupole Moments (Debye-Ang)
        XX     -66.8174     XY       1.7048     YY     -64.7273
        XZ       0.3941     YZ      -0.6135     ZZ     -71.2161

 Total job time:  30.72s(wall), 30.15s(cpu)
        *  Thank you very much for using Q-Chem.  Have a nice day.  *
