 Q-Chem 5.2, Q-Chem, Inc., Pleasanton, CA (2019)
 Q-Chem 5.2.1 for Intel X86 EM64T Linux

User input:
--------------------------------------------------------------
$molecule
0 1
C         2.93063244530000   -1.11550642840000    0.24727280180000
C         1.68606380530000   -1.13386040140000   -0.21447167160000
C         0.73449490400000   -0.04768419230000   -0.06941496500000
C         1.11062487230000    1.31881212760000    0.04281689230000
C         0.05566400790000    2.16675795450000    0.06698486280000
S        -1.44542052850000    1.33790403580000   -0.04569794770000
C        -0.63708490360000   -0.20187187070000   -0.11770796310000
C        -1.44299097640000   -1.39511740730000   -0.17851284970000
C        -1.09166450010000   -2.59206972430000    0.28350169400000
H         3.60236950470000   -1.94130860300000    0.08776477070000
H         3.31959279040000   -0.28720654170000    0.81517064040000
H         1.32226312990000   -1.99785213420000   -0.75597036980000
H         2.13392819780000    1.64649937610000    0.07708047680000
H         0.06047588580000    3.23618145280000    0.14174186010000
H        -2.42711280730000   -1.25586272880000   -0.60932981700000
H        -0.15267490030000   -2.76335850460000    0.78030452490000
H        -1.75257813440000   -3.43709047240000    0.19623268290000
$end

$rem
BASIS = 6-31G*
GUI = 2
METHOD = B3LYP
PRINT_ORBITALS false
MOLDEN_FORMAT false
--------------------------------------------------------------

             Standard Nuclear Orientation (Angstroms)
    I     Atom           X                Y                Z
 ----------------------------------------------------------------
    1      C       2.7638292646    -1.3741918437    -0.1209499801
    2      C       1.9087926416    -0.4475636423     0.2947042950
    3      C       0.4716353590    -0.5020765845     0.0999971723
    4      C      -0.2616306068    -1.7145539126    -0.0166291006
    5      C      -1.6004059053    -1.5283686647    -0.0911569155
    6      S      -2.0288182030     0.1343853786    -0.0228713805
    7      C      -0.3569696361     0.6027993663     0.0996540152
    8      C      -0.0422944123     2.0084253153     0.1466852585
    9      C       1.0858203256     2.5650344026    -0.2858954192
   10      H       3.8193307225    -1.2942267979     0.0743574295
   11      H       2.4471328898    -2.2351383574    -0.6851780494
   12      H       2.2696255292     0.4190695017     0.8339631446
   13      H       0.2017087343    -2.6846150313    -0.0174675778
   14      H      -2.3729811171    -2.2662725239    -0.1800603365
   15      H      -0.8326437268     2.6368967134     0.5389384496
   16      H       1.8709030727     1.9902053262    -0.7453200384
   17      H       1.2453529613     3.6268884935    -0.2117468874
 ----------------------------------------------------------------

    9    -707.7996762786      5.59e-06  Convergence criterion met
 Total energy in the final basis set =     -707.7996762786

                    Orbital Energies (a.u.)
 --------------------------------------------------------------

 Alpha MOs
 -- Occupied --
-88.9054 -10.2171 -10.2121 -10.1997 -10.1955 -10.1903 -10.1891 -10.1834
-10.1785  -7.9674  -5.9313  -5.9276  -5.9245  -0.8896  -0.7950  -0.7886
 -0.7222  -0.7083  -0.6180  -0.5899  -0.5595  -0.5153  -0.5006  -0.4605
 -0.4467  -0.4209  -0.4163  -0.3876  -0.3786  -0.3688  -0.3575  -0.3379
 -0.2957  -0.2943  -0.2370  -0.2084

          Ground-State Mulliken Net Atomic Charges

     Atom                 Charge (a.u.)
  ----------------------------------------
      1 C                    -0.352581
      2 C                    -0.118037
      3 C                     0.152014
      4 C                    -0.120205
      5 C                    -0.351338
      6 S                     0.247344
      7 C                    -0.210606
      8 C                    -0.088807
      9 C                    -0.345901
     10 H                     0.142747
     11 H                     0.141163
     12 H                     0.143952
     13 H                     0.142381
     14 H                     0.172452
     15 H                     0.140257
     16 H                     0.159510
     17 H                     0.145658
  ----------------------------------------
  Sum of atomic charges =     0.000000

                    Cartesian Multipole Moments
 -----------------------------------------------------------------
    Charge (ESU x 10^10)
                 0.0000
    Dipole Moment (Debye)
         X       0.2263      Y      -0.2853      Z       0.0460
       Tot       0.3670
    Quadrupole Moments (Debye-Ang)
        XX     -56.5774     XY       1.7642     YY     -53.3678
        XZ      -0.2647     YZ       1.6280     ZZ     -63.5659

 Total job time:  16.90s(wall), 16.83s(cpu)
        *  Thank you very much for using Q-Chem.  Have a nice day.  *
