 Q-Chem 5.2, Q-Chem, Inc., Pleasanton, CA (2019)
 Q-Chem 5.2.1 for Intel X86 EM64T Linux

User input:
--------------------------------------------------------------
$molecule
0 1
C         2.07536024650000    1.86113883170000   -0.28360175670000
C         2.00344398420000    0.63857649500000    0.22790195550000
C         0.87172942030000   -0.25921763230000    0.12680258720000
C         0.96604737470000   -1.67904503230000    0.09219546990000
C        -0.30308022160000   -2.14362558790000   -0.03928610990000
O        -1.18223649950000   -1.13170747980000   -0.07373892550000
C        -0.48177798840000    0.02387897440000    0.02897906910000
C        -1.19250305570000    1.27366221420000    0.10122724060000
C        -2.49658377270000    1.40421972650000   -0.12871563600000
H         2.96041077160000    2.46391319490000   -0.17150536870000
H         1.26884963550000    2.29476307590000   -0.84928459430000
H         2.86199566650000    0.22068933670000    0.73973535310000
H         1.86513455430000   -2.25886447590000    0.14302611050000
H        -0.69797467830000   -3.13796596140000   -0.11268172690000
H        -0.58886561460000    2.12477052160000    0.38106125480000
H        -3.10212732990000    0.56049440660000   -0.41227544690000
H        -2.99229272720000    2.35494949460000   -0.04314334760000
$end

$rem
BASIS = 6-31G*
GUI = 2
METHOD = B3LYP
PRINT_ORBITALS false
MOLDEN_FORMAT false
--------------------------------------------------------------

             Standard Nuclear Orientation (Angstroms)
    I     Atom           X                Y                Z
 ----------------------------------------------------------------
    1      C       2.2496497102    -1.5902710079     0.2799430672
    2      C       2.0519203859    -0.3663097080    -0.1936480159
    3      C       0.8235162709     0.3942323616    -0.0955036209
    4      C       0.7552383065     1.8135426798    -0.0124390973
    5      C      -0.5612292206     2.1273544740     0.0982079176
    6      O      -1.3204535365     1.0223064274     0.0752238359
    7      C      -0.4910988030    -0.0427247319    -0.0449948025
    8      C      -1.0534441426    -1.3612513706    -0.1775213581
    9      C      -2.3394876382    -1.6458280001     0.0113007178
   10      H       3.1998458554    -2.0852373924     0.1733948195
   11      H       1.4840443598    -2.1316146088     0.8084144257
   12      H       2.8696920213     0.1633673326    -0.6673629937
   13      H       1.5836901205     2.4923312312    -0.0192060857
   14      H      -1.0680740774     3.0677023442     0.1925238814
   15      H      -0.3505022103    -2.1285871175    -0.4675887262
   16      H      -3.0435755752    -0.8861696451     0.3047984898
   17      H      -2.7218814170    -2.6427117445    -0.1188333448
 ----------------------------------------------------------------

    9    -384.8241100477      3.00e-06  Convergence criterion met
 Total energy in the final basis set =     -384.8241100477

                    Orbital Energies (a.u.)
 --------------------------------------------------------------

 Alpha MOs
 -- Occupied --
-19.2164 -10.2383 -10.2361 -10.1942 -10.1924 -10.1910 -10.1828 -10.1797
-10.1774  -1.1206  -0.8260  -0.7983  -0.7582  -0.7191  -0.6248  -0.6134
 -0.5806  -0.5292  -0.5107  -0.4665  -0.4593  -0.4482  -0.4457  -0.4158
 -0.3961  -0.3723  -0.3638  -0.3525  -0.3144  -0.2952  -0.2508  -0.1996

          Ground-State Mulliken Net Atomic Charges

     Atom                 Charge (a.u.)
  ----------------------------------------
      1 C                    -0.350799
      2 C                    -0.109542
      3 C                     0.064181
      4 C                    -0.213943
      5 C                     0.081270
      6 O                    -0.435337
      7 C                     0.266775
      8 C                    -0.110808
      9 C                    -0.354612
     10 H                     0.142491
     11 H                     0.149053
     12 H                     0.133238
     13 H                     0.139703
     14 H                     0.155190
     15 H                     0.145263
     16 H                     0.155144
     17 H                     0.142735
  ----------------------------------------
  Sum of atomic charges =     0.000000

                    Cartesian Multipole Moments
 -----------------------------------------------------------------
    Charge (ESU x 10^10)
                 0.0000
    Dipole Moment (Debye)
         X       0.6427      Y       0.4420      Z      -0.0586
       Tot       0.7823
    Quadrupole Moments (Debye-Ang)
        XX     -49.3521     XY       0.2445     YY     -45.3242
        XZ      -1.2808     YZ       0.0597     ZZ     -55.5883

 Total job time:  14.89s(wall), 14.83s(cpu)
        *  Thank you very much for using Q-Chem.  Have a nice day.  *
