 Q-Chem 5.2, Q-Chem, Inc., Pleasanton, CA (2019)
 Q-Chem 5.2.1 for Intel X86 EM64T Linux

User input:
--------------------------------------------------------------
$molecule
0 1
C         3.64659554120000   -0.35345613610000    0.20440865080000
C         2.47433652920000   -0.74641978960000   -0.27548818660000
C         1.21854015750000   -0.00737482320000   -0.17555171850000
C         1.18720928640000    1.37207510640000   -0.00723123950000
C        -0.01850146410000    2.06283460540000    0.07526476850000
N        -0.03132977880000    3.44218085940000    0.15754105740000
C        -1.21115275900000    1.34986185760000   -0.00867524610000
C        -1.21649774860000   -0.02981366490000   -0.17741069350000
C        -2.45856330850000   -0.79153673420000   -0.27996958540000
C        -3.63654929370000   -0.42333121240000    0.20542035460000
C         0.00739952990000   -0.70573812980000   -0.27142730730000
O         0.02032168790000   -2.08370269620000   -0.44923908450000
C         0.01725452920000   -2.80929251420000    0.75941243140000
H         4.53063408970000   -0.95791226600000    0.09312951900000
H         3.77308908960000    0.57602640670000    0.73415841450000
H         2.39056606910000   -1.70444518440000   -0.77223457820000
H         2.11368864890000    1.92504574690000    0.03307553130000
H         0.81153045330000    3.87641750590000    0.49650374100000
H        -0.88251247370000    3.86073210520000    0.49543216840000
H        -2.14790459040000    1.88537592820000    0.03034325460000
H        -2.35834900600000   -1.74434518660000   -0.78370643400000
H        -3.77813425240000    0.49988003530000    0.74228279200000
H        -4.50985446460000   -1.04280778250000    0.09201920340000
H         0.90330734000000   -2.58000986080000    1.36344138800000
H         0.02706443810000   -3.86323410160000    0.48529327440000
H        -0.88033912740000   -2.59340853490000    1.35117299220000
$end

$rem
BASIS = 6-31G*
GUI = 2
METHOD = B3LYP
PRINT_ORBITALS false
MOLDEN_FORMAT false
--------------------------------------------------------------

             Standard Nuclear Orientation (Angstroms)
    I     Atom           X                Y                Z
 ----------------------------------------------------------------
    1      C       3.6413624070     0.3952928403    -0.1819272292
    2      C       2.4635977626     0.7722530071     0.2973264343
    3      C       1.2184831834     0.0151955743     0.1985690786
    4      C       1.2068539497    -1.3648301785     0.0324691149
    5      C       0.0111300108    -2.0728640292    -0.0489251041
    6      N       0.0179972579    -3.4523834878    -0.1289809986
    7      C      -1.1915808448    -1.3768561938     0.0338569426
    8      C      -1.2166269678     0.0028722076     0.2003711988
    9      C      -2.4694436027     0.7469498558     0.3016932024
   10      C      -3.6420377207     0.3611840534    -0.1831134206
   11      C      -0.0025069309     0.6963507303     0.2933100442
   12      O      -0.0092636280     2.0746437441     0.4689035281
   13      C      -0.0226509903     2.7981696143    -0.7409144631
   14      H       4.5166780928     1.0124863244    -0.0716137358
   15      H       3.7811291195    -0.5331405505    -0.7101789988
   16      H       2.3661433438     1.7297831064     0.7925292915
   17      H       2.1411344204    -1.9045820949    -0.0069395735
   18      H       0.8669814692    -3.8750880954    -0.4672370563
   19      H      -0.8271127795    -3.8835869429    -0.4662051575
   20      H      -2.1205909400    -1.9257509740    -0.0043074413
   21      H      -2.3828577513     1.7019013898     0.8038964720
   22      H      -3.7704115012    -0.5648172571    -0.7184902322
   23      H      -4.5241011651     0.9683117993    -0.0707170514
   24      H       0.8666038055     2.5805878562    -1.3445660066
   25      H      -0.0278968731     3.8525836618    -0.4684921560
   26      H      -0.9170525593     2.5685413484    -1.3323343808
 ----------------------------------------------------------------

    8    -556.9144532264      9.06e-06  Convergence criterion met
 Total energy in the final basis set =     -556.9144532264

                    Orbital Energies (a.u.)
 --------------------------------------------------------------

 Alpha MOs
 -- Occupied --
-19.1561 -14.3384 -10.2248 -10.2241 -10.2221 -10.1885 -10.1884 -10.1824
-10.1823 -10.1765 -10.1764 -10.1745 -10.1743  -1.0448  -0.9210  -0.8448
 -0.8002  -0.7606  -0.7295  -0.7148  -0.6739  -0.6403  -0.5921  -0.5785
 -0.5469  -0.5164  -0.5109  -0.4937  -0.4769  -0.4564  -0.4449  -0.4447
 -0.4236  -0.4226  -0.4106  -0.4016  -0.3811  -0.3615  -0.3562  -0.3413
 -0.3321  -0.3159  -0.3042  -0.2643  -0.2498  -0.2157  -0.1924

          Ground-State Mulliken Net Atomic Charges

     Atom                 Charge (a.u.)
  ----------------------------------------
      1 C                    -0.348197
      2 C                    -0.119524
      3 C                     0.153061
      4 C                    -0.268062
      5 C                     0.362292
      6 N                    -0.808243
      7 C                    -0.267852
      8 C                     0.153099
      9 C                    -0.120008
     10 C                    -0.348026
     11 C                     0.164173
     12 O                    -0.521802
     13 C                    -0.208278
     14 H                     0.141518
     15 H                     0.136234
     16 H                     0.149191
     17 H                     0.116245
     18 H                     0.322008
     19 H                     0.322001
     20 H                     0.116316
     21 H                     0.149294
     22 H                     0.136338
     23 H                     0.141554
     24 H                     0.145461
     25 H                     0.155519
     26 H                     0.145689
  ----------------------------------------
  Sum of atomic charges =     0.000000

                    Cartesian Multipole Moments
 -----------------------------------------------------------------
    Charge (ESU x 10^10)
                 0.0000
    Dipole Moment (Debye)
         X      -0.0065      Y      -1.4620      Z      -2.2352
       Tot       2.6709
    Quadrupole Moments (Debye-Ang)
        XX     -71.2527     XY      -0.0675     YY     -63.9371
        XZ      -0.0199     YZ       3.5375     ZZ     -80.3600

 Total job time:  37.55s(wall), 33.12s(cpu)
        *  Thank you very much for using Q-Chem.  Have a nice day.  *
