 Q-Chem 5.2, Q-Chem, Inc., Pleasanton, CA (2019)
 Q-Chem 5.2.1 for Intel X86 EM64T Linux

User input:
--------------------------------------------------------------
$molecule
0 1
C        -4.17180698810000    1.12970805330000    2.65938364520000
C        -4.36366835780000    0.39457658060000    1.56625735220000
C        -3.34621483550000    0.03052911910000    0.61792698610000
C        -2.00621306940000    0.32851555580000    0.60433313100000
C        -1.31049444650000   -0.20118163680000   -0.49593848070000
C         0.15957641660000   -0.02946448080000   -0.75225530250000
C         0.84614065360000    0.95345896950000    0.19356884690000
C         2.30668802160000    1.21274040510000   -0.18145072860000
C         3.21712894060000    0.01382623990000    0.07585144320000
C         4.66546741190000    0.25322154400000   -0.35465174060000
C         5.38617323190000    1.38803326680000    0.37710896080000
C         5.45202918080000    1.23819333580000    1.89769789120000
C         6.20895829990000   -0.00610967510000    2.34676046200000
C        -2.13414606850000   -0.92373237980000   -1.33885916990000
C        -1.76858351000000   -1.61017213050000   -2.54632439970000
C        -2.60838868540000   -2.29478783160000   -3.31941885580000
S        -3.77325000900000   -0.93375881270000   -0.76044853340000
H        -4.98366387560000    1.36285334130000    3.32521712690000
H        -3.20542212810000    1.52130355790000    2.92541743960000
H        -5.35368456180000    0.02155727000000    1.33725087070000
H        -1.54304817990000    0.91584228530000    1.37473126930000
H         0.29893520280000    0.31958419660000   -1.78002515930000
H         0.63929675420000   -1.00940608640000   -0.67303024280000
H         0.80389781330000    0.57125594810000    1.21584829900000
H         0.30708085430000    1.90345643940000    0.16280391820000
H         2.66195199560000    2.06168611820000    0.40537825560000
H         2.36545441080000    1.49232708060000   -1.23646697550000
H         2.84535340890000   -0.84898062310000   -0.48105358160000
H         3.18281623630000   -0.24422806850000    1.13577100540000
H         4.67821948170000    0.47970481570000   -1.42426505610000
H         5.22602105480000   -0.67319287500000   -0.21489753270000
H         4.89950932710000    2.33629263700000    0.14002073480000
H         6.40653957320000    1.44367102380000   -0.01146761620000
H         4.44290826050000    1.22000681070000    2.31260168500000
H         5.95275668910000    2.12109743990000    2.30338661280000
H         5.68420714620000   -0.91119898440000    2.05216524950000
H         6.31393812360000   -0.01374579920000    3.42955524590000
H         7.20369369290000   -0.02566042290000    1.90629823280000
H        -0.72199650850000   -1.54541683780000   -2.81332116120000
H        -3.65480225740000   -2.37864210780000   -3.07652181160000
H        -2.27635220430000   -2.79067275650000   -4.21414708120000
$end

$rem
BASIS = 6-31G*
GUI = 2
METHOD = B3LYP
PRINT_ORBITALS false
MOLDEN_FORMAT false
--------------------------------------------------------------

             Standard Nuclear Orientation (Angstroms)
    I     Atom           X                Y                Z
 ----------------------------------------------------------------
    1      C      -3.6696786049    -3.6580280660    -0.0006636730
    2      C      -4.1300365494    -2.4156171203    -0.1296588850
    3      C      -3.3323808789    -1.2210227573    -0.0683200996
    4      C      -1.9812914162    -1.0717510924     0.1236712451
    5      C      -1.5452785021     0.2643156399     0.1280942461
    6      C      -0.1222497185     0.7078070176     0.3140993980
    7      C       0.8351127250    -0.4169851343     0.7019035354
    8      C       2.2433814824     0.0889609563     1.0210630873
    9      C       2.9996221349     0.5837600916    -0.2101055207
   10      C       4.3846254912     1.1444871198     0.1180382481
   11      C       5.3646728067     0.1453696409     0.7376831239
   12      C       5.6391988504    -1.0999547958    -0.1065811742
   13      C       6.2680244201    -0.7830356743    -1.4582577406
   14      C      -2.5833893250     1.1554761960    -0.0697835987
   15      C      -2.5091457686     2.5883311660    -0.1347630257
   16      C      -3.5469289581     3.3984242482    -0.3307264881
   17      S      -4.0992398897     0.3248955699    -0.2532338928
   18      H      -4.3282825177    -4.5064175497    -0.0579238378
   19      H      -2.6277383570    -3.8697227989     0.1653681809
   20      H      -5.1867550743    -2.2492640101    -0.2951643552
   21      H      -1.3262124882    -1.9120770739     0.2567559418
   22      H      -0.0922516858     1.4760068306     1.0929035418
   23      H       0.2173481288     1.1731264539    -0.6158709709
   24      H       0.8944414255    -1.1459926828    -0.1092357774
   25      H       0.4405606915    -0.9231552385     1.5862946589
   26      H       2.8027623931    -0.7299391047     1.4768977707
   27      H       2.1804001704     0.8956598858     1.7558771252
   28      H       2.4266573037     1.3794312593    -0.6911612664
   29      H       3.0903687252    -0.2318916058    -0.9296027278
   30      H       4.2667624058     1.9783337807     0.8154176079
   31      H       4.8202103238     1.5494579634    -0.7975270256
   32      H       4.9896489805    -0.1695931084     1.7135950116
   33      H       6.3110997440     0.6652129527     0.9087789162
   34      H       4.7131875881    -1.6572003718    -0.2575164246
   35      H       6.3180941785    -1.7467533189     0.4551873166
   36      H       5.5793707675    -0.2280223863    -2.0899642921
   37      H       6.5346060522    -1.7023259354    -1.9753295606
   38      H       7.1706257735    -0.1895640937    -1.3279120880
   39      H      -1.5172343136     3.0034128965    -0.0137518992
   40      H      -4.5451021591     3.0129134751    -0.4573897505
   41      H      -3.4302789551     4.4668100472    -0.3711398807
 ----------------------------------------------------------------

    9   -1022.3075867765      2.40e-06  Convergence criterion met
 Total energy in the final basis set =    -1022.3075867765

                    Orbital Energies (a.u.)
 --------------------------------------------------------------

 Alpha MOs
 -- Occupied --
-88.8982 -10.2143 -10.2088 -10.1963 -10.1937 -10.1930 -10.1883 -10.1824
-10.1818 -10.1803 -10.1775 -10.1775 -10.1753 -10.1750 -10.1738 -10.1728
-10.1683  -7.9601  -5.9240  -5.9205  -5.9172  -0.8875  -0.8191  -0.8056
 -0.7945  -0.7709  -0.7578  -0.7279  -0.7033  -0.6865  -0.6568  -0.6247
 -0.6132  -0.5871  -0.5713  -0.5445  -0.5294  -0.5245  -0.4909  -0.4729
 -0.4650  -0.4600  -0.4573  -0.4492  -0.4367  -0.4177  -0.4139  -0.4074
 -0.3988  -0.3926  -0.3857  -0.3781  -0.3744  -0.3620  -0.3598  -0.3527
 -0.3518  -0.3421  -0.3342  -0.3303  -0.3231  -0.3166  -0.3130  -0.3066
 -0.3014  -0.2672  -0.2439  -0.1922

          Ground-State Mulliken Net Atomic Charges

     Atom                 Charge (a.u.)
  ----------------------------------------
      1 C                    -0.343903
      2 C                    -0.086937
      3 C                    -0.133146
      4 C                    -0.166066
      5 C                     0.151084
      6 C                    -0.340505
      7 C                    -0.269954
      8 C                    -0.257176
      9 C                    -0.264797
     10 C                    -0.260032
     11 C                    -0.254950
     12 C                    -0.253362
     13 C                    -0.444887
     14 C                    -0.205100
     15 C                    -0.056629
     16 C                    -0.376174
     17 S                     0.232634
     18 H                     0.145809
     19 H                     0.141567
     20 H                     0.136315
     21 H                     0.136845
     22 H                     0.150820
     23 H                     0.160072
     24 H                     0.137133
     25 H                     0.139159
     26 H                     0.136570
     27 H                     0.128280
     28 H                     0.133025
     29 H                     0.134208
     30 H                     0.126972
     31 H                     0.132238
     32 H                     0.132033
     33 H                     0.127153
     34 H                     0.133293
     35 H                     0.130901
     36 H                     0.147588
     37 H                     0.142571
     38 H                     0.142383
     39 H                     0.136439
     40 H                     0.154981
     41 H                     0.143546
  ----------------------------------------
  Sum of atomic charges =     0.000000

                    Cartesian Multipole Moments
 -----------------------------------------------------------------
    Charge (ESU x 10^10)
                -0.0000
    Dipole Moment (Debye)
         X       1.3872      Y      -0.2123      Z       0.2029
       Tot       1.4180
    Quadrupole Moments (Debye-Ang)
        XX    -113.5748     XY       1.5508     YY    -107.0184
        XZ       1.0782     YZ      -0.2077     ZZ    -117.1452

 Total job time:  74.19s(wall), 73.79s(cpu)
        *  Thank you very much for using Q-Chem.  Have a nice day.  *
