 Q-Chem 5.4, Q-Chem, Inc., Pleasanton, CA (2021)
 Q-Chem 5.4.2 for Intel X86 EM64T Linux

User input:
--------------------------------------------------------------
$molecule
0 1
C            0.46783766520000        4.56956533570000        0.05148335360000
C           -0.54843850020000        3.72020456270000        0.13626608180000
C           -0.47353172040000        2.26461140030000        0.05901291550000
C           -1.65566972950000        1.52813022750000        0.10600963660000
C           -1.66470600050000        0.13480220270000        0.03560934950000
C           -2.95214315380000       -0.54160173640000        0.09218683050000
C           -3.20096784250000       -1.84216098790000        0.04603030250000
F           -2.33681590540000       -2.83886366580000       -0.06240399770000
F           -4.43321787440000       -2.34305410490000        0.10748516120000
C           -0.44858523040000       -0.53394455120000       -0.08374612200000
C            0.73969682710000        0.18762221270000       -0.12972242600000
C            2.00973117720000       -0.57645549570000       -0.25455858770000
O            2.06895820620000       -1.77942482170000       -0.31775533110000
O            3.08283897340000        0.22423803070000       -0.30039729760000
C            4.35606670490000       -0.41279227860000       -0.40389494450000
C            4.86124651360000       -0.87361628940000        0.95587228840000
C            0.73184384270000        1.57435287820000       -0.05866421260000
H            0.31311129700000        5.63264300990000        0.11845895000000
H            1.48601150770000        4.25027183470000       -0.08886700880000
H           -1.54926841840000        4.11149134280000        0.27201720970000
H           -2.59584606930000        2.05397428040000        0.19876884100000
H           -3.82494053520000        0.08885846060000        0.18378806760000
H           -0.39107276480000       -1.60856991750000       -0.14245460710000
H            5.01608350650000        0.34300937830000       -0.83512993150000
H            4.27077141370000       -1.26688650650000       -1.08383397010000
H            4.90073619080000       -0.03537422710000        1.64762546050000
H            5.85656411010000       -1.29547645080000        0.85037356210000
H            4.19714983990000       -1.63422477880000        1.35888272670000
H            1.66898163730000        2.10401455500000       -0.09356235120000
$end

$rem
BASIS = 6-31G*
GUI = 2
METHOD = B3LYP
PRINT_ORBITALS false
MOLDEN_FORMAT false
$end
--------------------------------------------------------------

             Standard Nuclear Orientation (Angstroms)
    I     Atom           X                Y                Z
 ----------------------------------------------------------------
    1      C       1.3952968964    -4.2918653640    -0.0015630452
    2      C       0.2101816735    -3.7017477354    -0.0947412125
    3      C      -0.0542891387    -2.2677828148    -0.0304735880
    4      C      -1.3747192876    -1.8255654161    -0.0849848383
    5      C      -1.7064101133    -0.4716714985    -0.0270771942
    6      C      -3.1153346161    -0.1123665702    -0.0907123867
    7      C      -3.6587387428     1.0955379446    -0.0564026841
    8      F      -3.0492343725     2.2661800038     0.0437691067
    9      F      -4.9733139894     1.2968522605    -0.1232997908
   10      C      -0.6785832355     0.4615616783     0.0872268919
   11      C       0.6443725248     0.0352669287     0.1405889215
   12      C       1.7025522624     1.0737693506     0.2595612912
   13      O       1.4813766964     2.2582379607     0.3120241287
   14      O       2.9317923212     0.5438246659     0.3134051553
   15      C       4.0225637490     1.4592968634     0.4121805669
   16      C       4.4111259240     2.0129758794    -0.9512677522
   17      C       0.9581072673    -1.3161267967     0.0819511521
   18      H       1.4911813048    -5.3624035979    -0.0591320540
   19      H       2.3114353362    -3.7442387627     0.1367120512
   20      H      -0.6724235480    -4.3153506869    -0.2277588018
   21      H      -2.1672779826    -2.5556459179    -0.1737596310
   22      H      -3.8181203726    -0.9285981616    -0.1773396645
   23      H      -0.8716889987     1.5207458537     0.1363501497
   24      H       4.8384583229     0.8806307762     0.8506820388
   25      H       3.7398512008     2.2761804938     1.0843740397
   26      H       4.6456405104     1.2008023844    -1.6354524960
   27      H       5.2813734317     2.6547846785    -0.8487795293
   28      H       3.5900692457     2.5956138296    -1.3615920502
   29      H       1.9923336855    -1.6140069767     0.1223210969
 ----------------------------------------------------------------

    9    -852.7131489499      7.43e-06  Convergence criterion met
 Total energy in the final basis set =     -852.7131489499

                    Orbital Energies (a.u.)
 --------------------------------------------------------------

 Alpha MOs
 -- Occupied --
-24.7470 -24.7366 -19.1912 -19.1326 -10.3606 -10.3136 -10.2428 -10.2136
-10.2062 -10.2049 -10.2044 -10.2002 -10.1969 -10.1965 -10.1949 -10.1864
-10.1798  -1.2891  -1.2275  -1.1084  -1.0174  -0.8808  -0.8211  -0.8020
 -0.7743  -0.7523  -0.7321  -0.6745  -0.6537  -0.6298  -0.6233  -0.5847
 -0.5692  -0.5525  -0.5355  -0.5221  -0.5138  -0.4984  -0.4825  -0.4755
 -0.4607  -0.4583  -0.4463  -0.4432  -0.4365  -0.4343  -0.4152  -0.4127
 -0.4091  -0.3949  -0.3830  -0.3785  -0.3716  -0.3609  -0.3535  -0.3395
 -0.3247  -0.2994  -0.2899  -0.2737  -0.2411  -0.2237

          Ground-State Mulliken Net Atomic Charges

     Atom                 Charge (a.u.)
  ----------------------------------------
      1 C                    -0.351849
      2 C                    -0.110612
      3 C                     0.179279
      4 C                    -0.263257
      5 C                     0.197502
      6 C                    -0.300051
      7 C                     0.551343
      8 F                    -0.226626
      9 F                    -0.247248
     10 C                    -0.231939
     11 C                     0.046475
     12 C                     0.606444
     13 O                    -0.490026
     14 O                    -0.470138
     15 C                    -0.045248
     16 C                    -0.465158
     17 C                    -0.224289
     18 H                     0.147482
     19 H                     0.148097
     20 H                     0.128331
     21 H                     0.131017
     22 H                     0.159744
     23 H                     0.168964
     24 H                     0.150821
     25 H                     0.168891
     26 H                     0.156447
     27 H                     0.151864
     28 H                     0.180323
     29 H                     0.153417
  ----------------------------------------
  Sum of atomic charges =     0.000000

                    Cartesian Multipole Moments
 -----------------------------------------------------------------
    Charge (ESU x 10^10)
                 0.0000
    Dipole Moment (Debye)
         X       1.1528      Y      -2.4087      Z      -0.2265
       Tot       2.6799
    Quadrupole Moments (Debye-Ang)
        XX     -83.9376     XY       5.1329     YY     -95.2697
        XZ       0.8053     YZ      -0.0518     ZZ     -97.9302

 Total job time:  90.84s(wall), 80.07s(cpu)
        *  Thank you very much for using Q-Chem.  Have a nice day.  *
