 Q-Chem 5.2, Q-Chem, Inc., Pleasanton, CA (2019)
 Q-Chem 5.2.1 for Intel X86 EM64T Linux

User input:
--------------------------------------------------------------
$molecule
0 1
C        -3.89819305390000   -0.27327718270000   -0.00375211000000
C        -2.71225111580000   -0.86945005400000    0.01727266620000
C        -1.41823547180000   -0.20682000710000   -0.01643236080000
C        -1.22466649610000    1.16672402020000   -0.18057249710000
N        -0.02661152550000    1.71563374100000   -0.10595748590000
C         1.02934316410000    0.92023916900000    0.06391327270000
N         2.23674910460000    1.54230280140000    0.17521116970000
C         0.86521770440000   -0.49073600600000    0.09708445010000
C         1.95687540640000   -1.45525797120000    0.15700235310000
C         3.17588222950000   -1.29715595190000   -0.34557042420000
N        -0.35306781590000   -1.00498798520000    0.10360830810000
H        -4.81072223020000   -0.84356015620000    0.02464196150000
H        -4.01014326330000    0.79674514020000   -0.04715473820000
H        -2.64056759840000   -1.94749924510000    0.07153798130000
H        -2.04033779380000    1.85190524320000   -0.36150502500000
H         2.18436158160000    2.53709407450000    0.33017071370000
H         2.97879063570000    1.04475935580000    0.63885091210000
H         1.67450594460000   -2.39348715660000    0.61614707270000
H         3.47312428910000   -0.41302080970000   -0.88395426440000
H         3.91070155250000   -2.08149649960000   -0.27587486500000
$end

$rem
BASIS = 6-31G*
GUI = 2
METHOD = B3LYP
PRINT_ORBITALS false
MOLDEN_FORMAT false
--------------------------------------------------------------

             Standard Nuclear Orientation (Angstroms)
    I     Atom           X                Y                Z
 ----------------------------------------------------------------
    1      C       3.9014898165     0.2835024226    -0.0036899852
    2      C       2.7126017960     0.8737755398     0.0174130012
    3      C       1.4218945476     0.2047510305    -0.0168229386
    4      C       1.2351685883    -1.1696589134    -0.1816405644
    5      N       0.0398385920    -1.7245394529    -0.1074867999
    6      C      -1.0200769220    -0.9344723279     0.0625777397
    7      N      -2.2244010612    -1.5625694995     0.1733784647
    8      C      -0.8629578283     0.4772838283     0.0964389850
    9      C      -1.9593963960     1.4363508476     0.1566239864
   10      C      -3.1775197300     1.2724405938    -0.3462301194
   11      N       0.3527607775     0.9975692565     0.1034112531
   12      H       4.8111742502     0.8582912651     0.0251268202
   13      H       4.0187534969    -0.7859309219    -0.0475757453
   14      H       2.6355626754     1.9514302754     0.0721720580
   15      H       2.0542588388    -1.8507007025    -0.3627559891
   16      H      -2.1671057513    -2.5571614270     0.3278800345
   17      H      -2.9689791151    -1.0689308552     0.6371255243
   18      H      -1.6817612299     2.3757531244     0.6162569572
   19      H      -3.4702823469     0.3870951718    -0.8850793423
   20      H      -3.9162322085     2.0530938131    -0.2762913714
 ----------------------------------------------------------------

    9    -474.4812539263      2.20e-06  Convergence criterion met
 Total energy in the final basis set =     -474.4812539263

                    Orbital Energies (a.u.)
 --------------------------------------------------------------

 Alpha MOs
 -- Occupied --
-14.3544 -14.3335 -14.3327 -10.2661 -10.2269 -10.2235 -10.2168 -10.1961
-10.1876 -10.1851 -10.1778  -0.9922  -0.9318  -0.8904  -0.8093  -0.7746
 -0.7280  -0.6663  -0.6473  -0.6015  -0.5686  -0.5372  -0.5308  -0.4894
 -0.4839  -0.4624  -0.4410  -0.4349  -0.4303  -0.3968  -0.3749  -0.3608
 -0.3517  -0.3260  -0.2946  -0.2862  -0.2644  -0.2443  -0.2027

          Ground-State Mulliken Net Atomic Charges

     Atom                 Charge (a.u.)
  ----------------------------------------
      1 C                    -0.352401
      2 C                    -0.095263
      3 C                     0.284988
      4 C                    -0.002251
      5 N                    -0.466955
      6 C                     0.433015
      7 N                    -0.775144
      8 C                     0.279203
      9 C                    -0.100167
     10 C                    -0.370705
     11 N                    -0.543610
     12 H                     0.145662
     13 H                     0.140565
     14 H                     0.142188
     15 H                     0.143916
     16 H                     0.339991
     17 H                     0.333102
     18 H                     0.151722
     19 H                     0.162597
     20 H                     0.149546
  ----------------------------------------
  Sum of atomic charges =     0.000000

                    Cartesian Multipole Moments
 -----------------------------------------------------------------
    Charge (ESU x 10^10)
                 0.0000
    Dipole Moment (Debye)
         X      -1.6320      Y      -0.8037      Z       0.9121
       Tot       2.0351
    Quadrupole Moments (Debye-Ang)
        XX     -52.0755     XY       0.8725     YY     -62.6902
        XZ      -2.7726     YZ      -1.0662     ZZ     -66.0137

 Total job time:  22.05s(wall), 21.88s(cpu)
        *  Thank you very much for using Q-Chem.  Have a nice day.  *
