 Q-Chem 5.2, Q-Chem, Inc., Pleasanton, CA (2019)
 Q-Chem 5.2.1 for Intel X86 EM64T Linux

User input:
--------------------------------------------------------------
$molecule
0 1
C         0.44591295380000    3.73590845510000    0.50531030200000
C        -0.08490946230000    2.86821930010000   -0.34153204150000
C        -0.05739587860000    1.40784067610000   -0.16323222330000
C        -1.27322175130000    0.71045963690000   -0.07441873210000
C        -2.52138091390000    1.38529700340000   -0.11296293600000
C        -3.69777853880000    0.70334335600000   -0.05186641990000
C        -3.69820193760000   -0.70107410750000    0.05164141480000
C        -2.52219891610000   -1.38366112340000    0.11314574950000
C        -1.27367669850000   -0.70950446370000    0.07469197620000
C        -0.05833746480000   -1.40767482930000    0.16356685880000
C        -0.08681453460000   -2.86806538550000    0.34193051390000
C         0.44173714140000   -3.73611318050000   -0.50595012770000
C         1.15783850910000   -0.71003540500000    0.09427348650000
C         2.40801563870000   -1.36906752800000    0.23527067020000
C         3.58397182770000   -0.69312548440000    0.13180823780000
C         3.58445148370000    0.69057398850000   -0.13200024090000
C         2.40898321480000    1.36738616020000   -0.23540089480000
C         1.15832569210000    0.70934415900000   -0.09409947320000
H         0.39681017160000    4.79897748550000    0.33756202660000
H         0.93957723230000    3.41438073400000    1.40790629230000
H        -0.59718336360000    3.22195668810000   -1.22927779380000
H        -2.52416581020000    2.46248220290000   -0.18591737490000
H        -4.63901766560000    1.23252604490000   -0.08432508760000
H        -4.63973872780000   -1.22974162750000    0.08384985730000
H        -2.52553234100000   -2.46083661790000    0.18630269550000
H        -0.59793860410000   -3.22134681130000    1.23053990520000
H         0.93376515180000   -3.41487081320000   -1.40952691420000
H         0.39157252760000   -4.79915722920000   -0.33838397100000
H         2.40956514850000   -2.43004539410000    0.43309349370000
H         4.52460090550000   -1.21242810070000    0.24376935410000
H         4.52543362620000    1.20918873270000   -0.24418198010000
H         2.41136683740000    2.42830422900000   -0.43350930450000
$end

$rem
BASIS = 6-31G*
GUI = 2
METHOD = B3LYP
PRINT_ORBITALS false
MOLDEN_FORMAT false
--------------------------------------------------------------

             Standard Nuclear Orientation (Angstroms)
    I     Atom           X                Y                Z
 ----------------------------------------------------------------
    1      C      -0.4420873984     3.7364791840    -0.5008516190
    2      C       0.0888025200     2.8678181668     0.3449514276
    3      C       0.0613977838     1.4076516538     0.1649062037
    4      C       1.2772756206     0.7104683403     0.0752556813
    5      C       2.5253843512     1.3853526376     0.1146029029
    6      C       3.7018328673     0.7035606211     0.0526878901
    7      C       3.7023611445    -0.7007320790    -0.0524985930
    8      C       2.5264090669    -1.3833331711    -0.1148154003
    9      C       1.2778364751    -0.7093164736    -0.0755522261
   10      C       0.0625492712    -1.4074711341    -0.1652580753
   11      C       0.0911351891    -2.8676453092    -0.3453673117
   12      C      -0.4373489516    -3.7367455544     0.5014766573
   13      C      -1.1536787441    -0.7100061292    -0.0951273480
   14      C      -2.4038069300    -1.3689628819    -0.2369085782
   15      C      -3.5798134339    -0.6932330724    -0.1326348664
   16      C      -3.5803959402     0.6901500380     0.1328273819
   17      C      -2.4049780582     1.3669261706     0.2370335773
   18      C      -1.1542716739     0.7091472154     0.0949420841
   19      H      -0.3930637381     4.7993506178    -0.3318329027
   20      H      -0.9357302768     3.4159936042    -1.4038298684
   21      H       0.6010525646     3.2205325349     1.2331178966
   22      H       2.5280887869     2.4624500696     0.1888448572
   23      H       4.6430324539     1.2327746310     0.0857763614
   24      H       4.6439374317    -1.2292901995    -0.0853416507
   25      H       2.5298229512    -2.4604201978    -0.1892598676
   26      H       0.6022830757    -3.2198260306    -1.2343998241
   27      H      -0.9293983351    -3.4166203291     1.4054382023
   28      H      -0.3871052176    -4.7995847891     0.3326398032
   29      H      -2.4052775641    -2.4297036426    -0.4359994586
   30      H      -4.5204039479    -1.2124719407    -0.2452139214
   31      H      -4.5214165892     1.2085598381     0.2456316613
   32      H      -2.4074405512     2.4276064981     0.4364099835
 ----------------------------------------------------------------

    8    -694.3079087058      2.96e-06  Convergence criterion met
 Total energy in the final basis set =     -694.3079087058

                    Orbital Energies (a.u.)
 --------------------------------------------------------------

 Alpha MOs
 -- Occupied --
-10.1934 -10.1933 -10.1929 -10.1925 -10.1914 -10.1910 -10.1908 -10.1908
-10.1849 -10.1845 -10.1829 -10.1829 -10.1821 -10.1821 -10.1812 -10.1807
-10.1780 -10.1780  -0.8862  -0.8489  -0.8194  -0.8076  -0.7651  -0.7497
 -0.7419  -0.7372  -0.6955  -0.6464  -0.6206  -0.6155  -0.5869  -0.5760
 -0.5458  -0.5315  -0.5246  -0.4944  -0.4736  -0.4601  -0.4601  -0.4541
 -0.4400  -0.4371  -0.4215  -0.4165  -0.4071  -0.3998  -0.3889  -0.3748
 -0.3731  -0.3629  -0.3558  -0.3426  -0.3331  -0.3119  -0.3015  -0.2977
 -0.2643  -0.2631  -0.2506  -0.2378  -0.1843

          Ground-State Mulliken Net Atomic Charges

     Atom                 Charge (a.u.)
  ----------------------------------------
      1 C                    -0.318465
      2 C                    -0.167151
      3 C                    -0.000428
      4 C                     0.090072
      5 C                    -0.195949
      6 C                    -0.132007
      7 C                    -0.132011
      8 C                    -0.195932
      9 C                     0.090072
     10 C                    -0.000499
     11 C                    -0.167293
     12 C                    -0.318332
     13 C                     0.089498
     14 C                    -0.197205
     15 C                    -0.135421
     16 C                    -0.135430
     17 C                    -0.197241
     18 C                     0.089493
     19 H                     0.143368
     20 H                     0.154841
     21 H                     0.146912
     22 H                     0.131435
     23 H                     0.126982
     24 H                     0.126982
     25 H                     0.131451
     26 H                     0.146937
     27 H                     0.154833
     28 H                     0.143375
     29 H                     0.138655
     30 H                     0.124891
     31 H                     0.124889
     32 H                     0.138679
  ----------------------------------------
  Sum of atomic charges =     0.000000

                    Cartesian Multipole Moments
 -----------------------------------------------------------------
    Charge (ESU x 10^10)
                 0.0000
    Dipole Moment (Debye)
         X       0.1585      Y      -0.0006      Z       0.0005
       Tot       0.1585
    Quadrupole Moments (Debye-Ang)
        XX     -95.2496     XY      -0.0043     YY     -91.6677
        XZ       0.0012     YZ       1.7267     ZZ    -106.5287

 Total job time:  68.42s(wall), 67.26s(cpu)
        *  Thank you very much for using Q-Chem.  Have a nice day.  *
