 Q-Chem 5.2, Q-Chem, Inc., Pleasanton, CA (2019)
 Q-Chem 5.2.1 for Intel X86 EM64T Linux

User input:
--------------------------------------------------------------
$molecule
0 1
C        -6.42928346510000   -1.50336839550000    0.01330409940000
C        -5.22811056450000   -1.77676695650000    0.51028550710000
C        -3.96532980920000   -1.16644325180000    0.12398343270000
C        -3.85214457670000   -0.17834041820000   -0.85358947850000
C        -2.62877742660000    0.36793589970000   -1.18235287420000
C        -1.45768380730000   -0.02543886830000   -0.53183185610000
C        -1.57100719500000   -1.02501298360000    0.43851061860000
C        -2.79154885090000   -1.58649622270000    0.75222824410000
S        -0.13687219930000   -1.55755252750000    1.33579732010000
C         1.07755019890000   -1.30417149190000    0.06667040550000
C         2.19418409780000   -2.11379298630000    0.05940698730000
C         3.21660516820000   -1.91844392190000   -0.86999426940000
C         4.42570043370000   -2.72654994650000   -0.90391110050000
C         4.74145177120000   -3.72163924010000   -0.08265963510000
C         3.04990571520000   -0.89361441770000   -1.80162645850000
C         1.92395756940000   -0.09615487970000   -1.80616700650000
C         0.91146797640000   -0.27239692700000   -0.86230976790000
N        -0.22380124950000    0.53291304130000   -0.84855711580000
C        -0.13790665250000    1.90217329310000   -1.30940689510000
C         0.93390280810000    2.67781422800000   -0.53533162840000
C         0.61619685820000    2.72868345470000    0.95799026600000
C         1.76495323090000    3.28898943760000    1.79623950590000
C         2.16220118530000    4.72868775030000    1.46597245790000
C         1.04062283840000    5.73246356240000    1.70596108270000
H        -7.30885334060000   -2.01383707280000    0.36588299490000
H        -6.58929744990000   -0.76953589970000   -0.75776485240000
H        -5.14187035670000   -2.52874269500000    1.28527554330000
H        -4.72976227980000    0.16570989680000   -1.37751914880000
H        -2.58058314180000    1.10757710340000   -1.96689382150000
H        -2.82871307300000   -2.34900542770000    1.51634918930000
H         2.26869839730000   -2.88719252150000    0.80685370140000
H         5.11793770500000   -2.46026441690000   -1.69394671940000
H         4.10264775840000   -4.03730409810000    0.72387456690000
H         5.66580440170000   -4.26260116060000   -0.19031711760000
H         3.81766794630000   -0.71963327910000   -2.54203055490000
H         1.82923128990000    0.67248089520000   -2.55675287240000
H        -1.10272596740000    2.37448568300000   -1.11767140420000
H         0.05879825280000    1.95583009700000   -2.38823914090000
H         0.97963999470000    3.68693405770000   -0.94712964390000
H         1.90884588610000    2.20869503800000   -0.67765079580000
H         0.41046280010000    1.71490715830000    1.30913156680000
H        -0.28773284160000    3.31851506190000    1.12060843730000
H         2.63931468190000    2.64675082590000    1.66193372960000
H         1.47906805110000    3.23787563250000    2.84955674060000
H         2.49349900920000    4.79235186000000    0.42800242630000
H         3.01468074970000    4.99661730210000    2.09492365110000
H         0.21325162600000    5.56828834230000    1.02041583530000
H         1.40432597590000    6.74695599430000    1.55821147420000
H         0.66639181730000    5.64759636880000    2.72392700970000
$end

$rem
BASIS = 6-31G*
GUI = 2
METHOD = B3LYP
PRINT_ORBITALS false
MOLDEN_FORMAT false
--------------------------------------------------------------

             Standard Nuclear Orientation (Angstroms)
    I     Atom           X                Y                Z
 ----------------------------------------------------------------
    1      C      -6.6391734042     0.1716080428     0.0077440605
    2      C      -5.5275041279     0.5947258505    -0.5836241587
    3      C      -4.1609362218     0.3428278494    -0.1530674166
    4      C      -3.8327207059    -0.4044872714     0.9776852481
    5      C      -2.5187238388    -0.6135885184     1.3421290317
    6      C      -1.4630925793    -0.1095022722     0.5799471186
    7      C      -1.7938484162     0.6501238512    -0.5457188396
    8      C      -3.1082381724     0.8771703308    -0.8981866748
    9      S      -0.5126308089     1.2978861971    -1.5870402898
   10      C       0.7361514551     1.5398534094    -0.3494209779
   11      C       1.6538867175     2.5524527196    -0.5360103956
   12      C       2.7004838809     2.7480608505     0.3660232150
   13      C       3.7090386500     3.7833960563     0.2017206013
   14      C       3.7993596291     4.6556119920    -0.7959953207
   15      C       2.7628448848     1.8985685645     1.4707750954
   16      C       1.8334878146     0.8978597993     1.6672412800
   17      C       0.8005829598     0.6833339909     0.7539236133
   18      N      -0.1363205407    -0.3302026969     0.9342142375
   19      C       0.2433523814    -1.5436770830     1.6255625032
   20      C       1.4511313211    -2.2060036441     0.9531188567
   21      C       1.1418955884    -2.5937087816    -0.4917316605
   22      C       2.3783813939    -3.0447753162    -1.2688337262
   23      C       3.0764078536    -4.2846527411    -0.7075169487
   24      C       2.1938328027    -5.5272712978    -0.7151857977
   25      H      -7.6098301437     0.4138363111    -0.3893507318
   26      H      -6.6335475985    -0.4262049608     0.9028696935
   27      H      -5.6091009210     1.1938315360    -1.4824727455
   28      H      -4.6130418182    -0.8229254526     1.5933915105
   29      H      -2.3083788710    -1.1709971739     2.2420995216
   30      H      -3.3125642139     1.4625801092    -1.7826235273
   31      H       1.5564349089     3.1747141783    -1.4110359006
   32      H       4.4473500467     3.8164022475     0.9942252228
   33      H       3.1025793847     4.6782072948    -1.6158727699
   34      H       4.5873609163     5.3882161599    -0.8276627034
   35      H       3.5548736873     2.0269902426     2.1947397042
   36      H       1.9101974592     0.2765222586     2.5454260302
   37      H      -0.5994060539    -2.2341245485     1.5642573670
   38      H       0.4540270570    -1.3573021418     2.6868501406
   39      H       1.7142559276    -3.0908207561     1.5343730578
   40      H       2.3041389705    -1.5255221776     0.9659441764
   41      H       0.7218781512    -1.7268013936    -1.0069267965
   42      H       0.3839339278    -3.3790203827    -0.5063845435
   43      H       3.0960692705    -2.2204605656    -1.2899459635
   44      H       2.0813010190    -3.2475826847    -2.3005471439
   45      H       3.4204327930    -4.0872087573     0.3092700830
   46      H       3.9623306276    -4.4785803708    -1.3171235176
   47      H       1.3549902839    -5.4174513258    -0.0327257515
   48      H       2.7669869319    -6.3989452318    -0.4069915239
   49      H       1.8034657851    -5.7096709771    -1.7141101565
 ----------------------------------------------------------------

    9   -1306.3064633278      2.91e-06  Convergence criterion met
 Total energy in the final basis set =    -1306.3064633278

                    Orbital Energies (a.u.)
 --------------------------------------------------------------

 Alpha MOs
 -- Occupied --
-88.8874 -14.3669 -10.2348 -10.2346 -10.2258 -10.2189 -10.2171 -10.1927
-10.1919 -10.1910 -10.1908 -10.1906 -10.1905 -10.1890 -10.1882 -10.1881
-10.1877 -10.1820 -10.1763 -10.1758 -10.1731 -10.1711 -10.1708 -10.1677
 -7.9483  -5.9133  -5.9097  -5.9034  -0.9798  -0.8708  -0.8670  -0.8184
 -0.8055  -0.7979  -0.7766  -0.7662  -0.7571  -0.7346  -0.7243  -0.7103
 -0.6814  -0.6584  -0.6418  -0.6202  -0.6135  -0.5966  -0.5882  -0.5662
 -0.5551  -0.5447  -0.5360  -0.5156  -0.4926  -0.4828  -0.4751  -0.4675
 -0.4613  -0.4557  -0.4517  -0.4421  -0.4369  -0.4328  -0.4203  -0.4157
 -0.4124  -0.4049  -0.4027  -0.3927  -0.3891  -0.3850  -0.3789  -0.3731
 -0.3606  -0.3566  -0.3541  -0.3477  -0.3462  -0.3384  -0.3372  -0.3226
 -0.3168  -0.3127  -0.3082  -0.3013  -0.2981  -0.2624  -0.2592  -0.2241
 -0.2190  -0.1784

          Ground-State Mulliken Net Atomic Charges

     Atom                 Charge (a.u.)
  ----------------------------------------
      1 C                    -0.357527
      2 C                    -0.113097
      3 C                     0.198240
      4 C                    -0.201173
      5 C                    -0.165519
      6 C                     0.315032
      7 C                    -0.111527
      8 C                    -0.262129
      9 S                     0.160252
     10 C                    -0.110853
     11 C                    -0.250161
     12 C                     0.202521
     13 C                    -0.117499
     14 C                    -0.355465
     15 C                    -0.218831
     16 C                    -0.161517
     17 C                     0.313683
     18 N                    -0.577818
     19 C                    -0.158939
     20 C                    -0.281949
     21 C                    -0.269781
     22 C                    -0.254102
     23 C                    -0.252702
     24 C                    -0.444060
     25 H                     0.142769
     26 H                     0.139363
     27 H                     0.126886
     28 H                     0.127919
     29 H                     0.135798
     30 H                     0.141587
     31 H                     0.141432
     32 H                     0.125011
     33 H                     0.142641
     34 H                     0.142975
     35 H                     0.129073
     36 H                     0.133376
     37 H                     0.160044
     38 H                     0.141962
     39 H                     0.138769
     40 H                     0.153374
     41 H                     0.167851
     42 H                     0.130660
     43 H                     0.131917
     44 H                     0.129401
     45 H                     0.132001
     46 H                     0.131425
     47 H                     0.142746
     48 H                     0.142063
     49 H                     0.143879
  ----------------------------------------
  Sum of atomic charges =     0.000000

                    Cartesian Multipole Moments
 -----------------------------------------------------------------
    Charge (ESU x 10^10)
                 0.0000
    Dipole Moment (Debye)
         X       0.5274      Y      -1.3261      Z       1.7098
       Tot       2.2271
    Quadrupole Moments (Debye-Ang)
        XX    -144.5036     XY       2.8461     YY    -150.0499
        XZ       2.5661     YZ      -6.2711     ZZ    -145.5586

 Total job time:  144.43s(wall), 144.05s(cpu)
        *  Thank you very much for using Q-Chem.  Have a nice day.  *
