 Q-Chem 5.2, Q-Chem, Inc., Pleasanton, CA (2019)
 Q-Chem 5.2.1 for Intel X86 EM64T Linux

User input:
--------------------------------------------------------------
$molecule
0 1
C         2.42012233510000    2.65318250000000    0.06657336120000
C         2.82177438480000    1.39443086120000   -0.05903530580000
C         1.97812444410000    0.20387174530000   -0.03063429100000
C         2.58589366430000   -1.05283901940000    0.00092787590000
C         1.82268981860000   -2.20485283980000    0.03329671180000
C         0.44371907860000   -2.12550608970000    0.02970886840000
C        -0.19213258150000   -0.88155997080000   -0.00648177150000
C        -1.64760977710000   -0.86094408250000   -0.01252427970000
C        -2.46080882750000    0.18425687940000   -0.00270847220000
F        -2.14185733520000    1.47350643410000    0.01521242330000
F        -3.78884377610000    0.07220943980000   -0.00759862350000
C         0.58698674240000    0.27188013030000   -0.03778978540000
H         3.12254841710000    3.46841087700000    0.03714783380000
H         1.38881715940000    2.92685837850000    0.20854029820000
H         3.87854894700000    1.19070985080000   -0.18353613920000
H         3.66425293730000   -1.12195148720000    0.00350003390000
H         2.30531242750000   -3.17074414620000    0.05963055030000
H        -0.14941397250000   -3.02777197450000    0.05344380230000
H        -2.14138416410000   -1.82224236350000   -0.02181213450000
H         0.11186618040000    1.23668825510000   -0.07797746170000
$end

$rem
BASIS = 6-31G*
GUI = 2
METHOD = B3LYP
PRINT_ORBITALS false
MOLDEN_FORMAT false
--------------------------------------------------------------

             Standard Nuclear Orientation (Angstroms)
    I     Atom           X                Y                Z
 ----------------------------------------------------------------
    1      C      -2.4006951595    -2.5877613913     0.0658880477
    2      C      -2.7615483057    -1.3166777340    -0.0593674412
    3      C      -1.8799256549    -0.1539614531    -0.0308157282
    4      C      -2.4468321662     1.1216944637     0.0011300211
    5      C      -1.6468566559     2.2484797833     0.0336526376
    6      C      -0.2711639434     2.1246892213     0.0298396947
    7      C       0.3242215236     0.8608864580    -0.0067357644
    8      C       1.7782751956     0.7933286510    -0.0130011659
    9      C       2.5573338655    -0.2775646069    -0.0035504938
   10      F       2.1969593590    -1.5558578686     0.0141181074
   11      F       3.8882915484    -0.2084170934    -0.0086135631
   12      C      -0.4917070421    -0.2668112141    -0.0381955061
   13      H      -3.1290593224    -3.3798979790     0.0363780228
   14      H      -1.3787354584    -2.8945987094     0.2076367431
   15      H      -3.8112184168    -1.0789413692    -0.1836625000
   16      H      -3.5224001883     1.2255585052     0.0038798517
   17      H      -2.0980643633     3.2294315993     0.0602836149
   18      H       0.3507711235     3.0073451854     0.0536957621
   19      H       2.3028030206     1.7381994626    -0.0221392571
   20      H      -0.0479645037    -1.2464351044    -0.0786789444
 ----------------------------------------------------------------

    9    -585.5157036656      6.74e-06  Convergence criterion met
 Total energy in the final basis set =     -585.5157036656

                    Orbital Energies (a.u.)
 --------------------------------------------------------------

 Alpha MOs
 -- Occupied --
-24.7452 -24.7343 -10.3572 -10.2068 -10.2033 -10.1965 -10.1906 -10.1906
-10.1898 -10.1879 -10.1865 -10.1805  -1.2858  -1.2247  -0.8712  -0.8147
 -0.7868  -0.7398  -0.7286  -0.6480  -0.6305  -0.6053  -0.5778  -0.5555
 -0.5323  -0.5194  -0.5032  -0.4696  -0.4634  -0.4413  -0.4393  -0.4356
 -0.4277  -0.4130  -0.4032  -0.3846  -0.3750  -0.3453  -0.3437  -0.3181
 -0.2863  -0.2321  -0.2196

          Ground-State Mulliken Net Atomic Charges

     Atom                 Charge (a.u.)
  ----------------------------------------
      1 C                    -0.350202
      2 C                    -0.117233
      3 C                     0.180176
      4 C                    -0.196775
      5 C                    -0.127906
      6 C                    -0.193301
      7 C                     0.199934
      8 C                    -0.301778
      9 C                     0.546649
     10 F                    -0.234007
     11 F                    -0.248989
     12 C                    -0.260012
     13 H                     0.144916
     14 H                     0.147495
     15 H                     0.127528
     16 H                     0.127825
     17 H                     0.130971
     18 H                     0.127944
     19 H                     0.159748
     20 H                     0.137017
  ----------------------------------------
  Sum of atomic charges =     0.000000

                    Cartesian Multipole Moments
 -----------------------------------------------------------------
    Charge (ESU x 10^10)
                 0.0000
    Dipole Moment (Debye)
         X      -0.7442      Y       0.8889      Z      -0.0025
       Tot       1.1593
    Quadrupole Moments (Debye-Ang)
        XX     -65.0107     XY       1.5194     YY     -61.2972
        XZ       0.2509     YZ       0.0006     ZZ     -70.8223

 Total job time:  23.48s(wall), 23.39s(cpu)
        *  Thank you very much for using Q-Chem.  Have a nice day.  *
