 Q-Chem 5.2, Q-Chem, Inc., Pleasanton, CA (2019)
 Q-Chem 5.2.1 for Intel X86 EM64T Linux

User input:
--------------------------------------------------------------
$molecule
0 1
C         3.99797919780000    0.71509534110000    0.07946593900000
C         3.20043623360000   -0.34523493750000    0.05805765160000
C         1.74385136550000   -0.33458349450000   -0.00680256370000
C         0.97459242370000    0.82075516590000   -0.02346258890000
C        -0.41835765690000    0.74666290990000   -0.08066186050000
O        -1.02637722220000    1.95930847950000   -0.02735457150000
C        -2.42039649140000    2.09276574840000    0.12268689910000
C        -1.01371253510000   -0.52313878420000   -0.14903215600000
C        -2.44482643880000   -0.80992120060000   -0.29421756070000
C        -3.07850383260000   -1.73813348000000    0.40877324180000
C        -0.13466704480000   -1.61304082840000   -0.11290315390000
N         1.17148999810000   -1.54310455760000   -0.04141229930000
H         5.06818365230000    0.60837441690000    0.12637140250000
H         3.62572292100000    1.72504546370000    0.05051346620000
H         3.61555917480000   -1.34346297890000    0.08584545830000
H         1.42093275420000    1.79998126750000    0.02374246970000
H        -2.57586155690000    3.09770050750000    0.51702128980000
H        -2.82717043560000    1.36074124920000    0.82372578800000
H        -2.93466890900000    2.01009444600000   -0.83887380620000
H        -2.97497652900000   -0.26398849920000   -1.06320367080000
H        -2.58428437560000   -2.29604287100000    1.18660565730000
H        -4.11918616570000   -1.95943804420000    0.24483290090000
H        -0.54459305270000   -2.61359395750000   -0.16953931830000
$end

$rem
BASIS = 6-31G*
GUI = 2
METHOD = B3LYP
PRINT_ORBITALS false
MOLDEN_FORMAT false
--------------------------------------------------------------

             Standard Nuclear Orientation (Angstroms)
    I     Atom           X                Y                Z
 ----------------------------------------------------------------
    1      C       4.0371099652    -0.6320996671    -0.0971070288
    2      C       3.2214247970     0.4140195389    -0.0635554661
    3      C       1.7655505080     0.3775625385     0.0075832759
    4      C       1.0165022922    -0.7910515672     0.0181728270
    5      C      -0.3772498731    -0.7416138959     0.0820646465
    6      O      -0.9644076600    -1.9641597876     0.0215170420
    7      C      -2.3565690294    -2.1205760473    -0.1235128992
    8      C      -0.9941957866     0.5170680195     0.1634024983
    9      C      -2.4293927111     0.7777828124     0.3171800851
   10      C      -3.0822192666     1.7005112736    -0.3754315078
   11      C      -0.1343330090     1.6223206070     0.1323305411
   12      N       1.1725035382     1.5756472182     0.0545611482
   13      H       5.1050826985    -0.5064426834    -0.1478181318
   14      H       3.6825379247    -1.6485602641    -0.0747742210
   15      H       3.6190649351     1.4194948508    -0.0850067806
   16      H       1.4795198217    -1.7619688972    -0.0389767299
   17      H      -2.4963817498    -3.1248358020    -0.5253556753
   18      H      -2.7791213971    -1.3900766597    -0.8167665138
   19      H      -2.8678515488    -2.0546232694     0.8409299815
   20      H      -2.9465310286     0.2165287318     1.0839936790
   21      H      -2.6012532041     2.2731877210    -1.1508361506
   22      H      -4.1258283529     1.9023855254    -0.2051413866
   23      H      -0.5612689056     2.6151168465     0.1989257228
 ----------------------------------------------------------------

    9    -517.5984809914      2.17e-06  Convergence criterion met
 Total energy in the final basis set =     -517.5984809914

                    Orbital Energies (a.u.)
 --------------------------------------------------------------

 Alpha MOs
 -- Occupied --
-19.1882 -14.3128 -10.2638 -10.2451 -10.2209 -10.2146 -10.2009 -10.2004
-10.1863 -10.1855 -10.1838 -10.1805  -1.0781  -0.9430  -0.8238  -0.7998
 -0.7783  -0.7247  -0.7129  -0.6522  -0.6146  -0.5845  -0.5696  -0.5197
 -0.5174  -0.4826  -0.4732  -0.4622  -0.4523  -0.4414  -0.4344  -0.4160
 -0.4036  -0.3900  -0.3626  -0.3567  -0.3520  -0.3387  -0.3058  -0.2786
 -0.2468  -0.2396  -0.2227

          Ground-State Mulliken Net Atomic Charges

     Atom                 Charge (a.u.)
  ----------------------------------------
      1 C                    -0.345813
      2 C                    -0.091107
      3 C                     0.307143
      4 C                    -0.241625
      5 C                     0.351595
      6 O                    -0.503682
      7 C                    -0.223924
      8 C                     0.070895
      9 C                    -0.146014
     10 C                    -0.333563
     11 C                    -0.006567
     12 N                    -0.490514
     13 H                     0.147691
     14 H                     0.144085
     15 H                     0.144686
     16 H                     0.140206
     17 H                     0.168338
     18 H                     0.173689
     19 H                     0.153021
     20 H                     0.143885
     21 H                     0.152008
     22 H                     0.144523
     23 H                     0.141044
  ----------------------------------------
  Sum of atomic charges =     0.000000

                    Cartesian Multipole Moments
 -----------------------------------------------------------------
    Charge (ESU x 10^10)
                 0.0000
    Dipole Moment (Debye)
         X      -2.4318      Y      -1.6698      Z      -0.1253
       Tot       2.9526
    Quadrupole Moments (Debye-Ang)
        XX     -59.9228     XY      -1.1692     YY     -69.8475
        XZ      -0.5360     YZ      -0.5774     ZZ     -72.0198

 Total job time:  28.02s(wall), 27.92s(cpu)
        *  Thank you very much for using Q-Chem.  Have a nice day.  *
