 Q-Chem 5.2, Q-Chem, Inc., Pleasanton, CA (2019)
 Q-Chem 5.2.1 for Intel X86 EM64T Linux

User input:
--------------------------------------------------------------
$molecule
0 1
C         2.15875747160000   -3.14518712110000    0.39519152090000
C         2.25371746120000   -1.97733909630000   -0.22581435090000
C         1.27231919510000   -0.89590613400000   -0.13903762780000
C        -0.08059649760000   -1.21192067890000   -0.04796352420000
C        -1.06866170400000   -0.24097076110000   -0.02475999940000
C        -2.55347526490000   -0.56390425870000    0.04538519120000
C        -2.82355386520000   -2.06686346680000    0.15553797530000
C        -3.16173515520000    0.11959621610000    1.27801064240000
C        -3.23819666870000   -0.04475937780000   -1.22666983130000
C        -0.65443511100000    1.08324736490000   -0.08780522550000
C         0.68510132730000    1.45017381340000   -0.13274420800000
C         0.99100773400000    2.88176175020000   -0.14668627880000
C         1.98147469660000    3.48471662540000    0.49971366860000
C         1.67521642850000    0.45113786510000   -0.17649102280000
N         3.01271973060000    0.78966252060000   -0.20191657460000
H         2.90095908740000   -3.91530529100000    0.27042180980000
H         1.34571534910000   -3.37106337280000    1.06406789710000
H         3.11225683430000   -1.80098372660000   -0.86603807580000
H        -0.33996304830000   -2.25711107350000   -0.03295383520000
H        -2.36087243750000   -2.48095579940000    1.04841789530000
H        -2.45163954530000   -2.59749979460000   -0.71783642150000
H        -3.89622908960000   -2.23918521030000    0.22105760190000
H        -2.66097662640000   -0.22183791910000    2.18157946970000
H        -4.22018222590000   -0.12072581510000    1.35709068350000
H        -3.06256818130000    1.19997044850000    1.22249153420000
H        -2.80338124790000   -0.51593969140000   -2.10589131580000
H        -3.12252572820000    1.03115799080000   -1.32510849290000
H        -4.30188925180000   -0.27319879250000   -1.20231507490000
H        -1.38562959140000    1.87858206290000   -0.08172432920000
H         0.28794517410000    3.48566687010000   -0.71033989480000
H         2.66578196110000    2.94825738930000    1.13485315380000
H         2.11237976280000    4.55333527810000    0.45170785270000
H         3.21332479550000    1.71053747050000   -0.56201714150000
H         3.64360437450000    0.07081081150000   -0.51805842310000
$end

$rem
BASIS = 6-31G*
GUI = 2
METHOD = B3LYP
PRINT_ORBITALS false
MOLDEN_FORMAT false
--------------------------------------------------------------

             Standard Nuclear Orientation (Angstroms)
    I     Atom           X                Y                Z
 ----------------------------------------------------------------
    1      C      -1.0574718901    -3.6825659636    -0.4081509358
    2      C      -1.5364839378    -2.6111461433     0.2092158339
    3      C      -0.9626154443    -1.2677707194     0.1305556108
    4      C       0.4200737542    -1.1230214153     0.0546690122
    5      C       1.0357441247     0.1180614574     0.0398941536
    6      C       2.5450848873     0.2994519796    -0.0136375487
    7      C       3.2937813585    -1.0319439379    -0.1175652753
    8      C       2.9092027210     1.1462390449    -1.2411913624
    9      C       3.0081318549     1.0124561308     1.2645218211
   10      C       0.2099253638     1.2334249015     0.0955698014
   11      C      -1.1763014191     1.1412263342     0.1253545416
   12      C      -1.9344237703     2.3935886714     0.1328517886
   13      C      -3.0606887227     2.6397233139    -0.5254469828
   14      C      -1.7849306333    -0.1270933709     0.1607116989
   15      N      -3.1597211537    -0.2454328803     0.1710688167
   16      H      -1.5077498958    -4.6535010351    -0.2896287037
   17      H      -0.2080987032    -3.6286900251    -1.0677839802
   18      H      -2.4123083891    -2.7266741565     0.8398205423
   19      H       1.0076616432    -2.0255519449     0.0447505773
   20      H       3.0019856712    -1.5734915250    -1.0144279196
   21      H       3.1067718598    -1.6563698523     0.7529505118
   22      H       4.3643622292    -0.8432700314    -0.1712169103
   23      H       2.5577476096     0.6608819484    -2.1493107334
   24      H       3.9887640733     1.2660231507    -1.3084043633
   25      H       2.4610003630     2.1344339109    -1.1891289470
   26      H       2.7421557647     0.4235916064     2.1400793853
   27      H       2.5453319794     1.9909728482     1.3593344240
   28      H       4.0881632474     1.1451080925     1.2520606796
   29      H       0.6402572846     2.2244113117     0.0955556390
   30      H      -1.4741362752     3.1936867353     0.7026607617
   31      H      -3.5245761904     1.9095946149    -1.1666861037
   32      H      -3.5349436166     3.6064249248    -0.4812111292
   33      H      -3.6548104688     0.5584030934     0.5269617514
   34      H      -3.5236995915    -1.1317352039     0.4820298592
 ----------------------------------------------------------------

    8    -599.6465383393      9.60e-06  Convergence criterion met
 Total energy in the final basis set =     -599.6465383393

                    Orbital Energies (a.u.)
 --------------------------------------------------------------

 Alpha MOs
 -- Occupied --
-14.3354 -10.2216 -10.1905 -10.1895 -10.1880 -10.1819 -10.1804 -10.1758
-10.1746 -10.1745 -10.1729 -10.1718 -10.1649 -10.1642 -10.1636  -0.9232
 -0.8494  -0.8093  -0.8010  -0.7618  -0.7156  -0.7096  -0.6810  -0.6802
 -0.6234  -0.6148  -0.5832  -0.5483  -0.5298  -0.5194  -0.5032  -0.4687
 -0.4582  -0.4538  -0.4455  -0.4349  -0.4218  -0.4200  -0.4114  -0.3934
 -0.3892  -0.3745  -0.3703  -0.3683  -0.3615  -0.3599  -0.3369  -0.3283
 -0.3174  -0.3084  -0.2967  -0.2950  -0.2671  -0.2168  -0.1881

          Ground-State Mulliken Net Atomic Charges

     Atom                 Charge (a.u.)
  ----------------------------------------
      1 C                    -0.339016
      2 C                    -0.139558
      3 C                     0.156911
      4 C                    -0.287166
      5 C                     0.204024
      6 C                     0.004744
      7 C                    -0.453388
      8 C                    -0.436513
      9 C                    -0.434775
     10 C                    -0.277870
     11 C                     0.148048
     12 C                    -0.147695
     13 C                    -0.364545
     14 C                     0.174910
     15 N                    -0.809259
     16 H                     0.137825
     17 H                     0.144140
     18 H                     0.116765
     19 H                     0.124418
     20 H                     0.143545
     21 H                     0.145334
     22 H                     0.138987
     23 H                     0.146663
     24 H                     0.134879
     25 H                     0.141707
     26 H                     0.145174
     27 H                     0.140037
     28 H                     0.135369
     29 H                     0.119536
     30 H                     0.133958
     31 H                     0.166755
     32 H                     0.140026
     33 H                     0.324177
     34 H                     0.321856
  ----------------------------------------
  Sum of atomic charges =     0.000000

                    Cartesian Multipole Moments
 -----------------------------------------------------------------
    Charge (ESU x 10^10)
                 0.0000
    Dipole Moment (Debye)
         X      -0.8767      Y       0.0377      Z       0.9988
       Tot       1.3295
    Quadrupole Moments (Debye-Ang)
        XX     -82.6951     XY       0.5471     YY     -86.4607
        XZ      -4.3404     YZ       0.5149     ZZ     -94.3870

 Total job time:  52.72s(wall), 52.57s(cpu)
        *  Thank you very much for using Q-Chem.  Have a nice day.  *
