 Q-Chem 5.2, Q-Chem, Inc., Pleasanton, CA (2019)
 Q-Chem 5.2.1 for Intel X86 EM64T Linux

User input:
--------------------------------------------------------------
$molecule
0 1
C         4.33622059940000   -0.55112373400000    0.00018625100000
C         3.10145256350000   -1.03583054360000   -0.00029567780000
C         1.91704676080000   -0.20213099880000   -0.00013197710000
C         0.56672002360000   -0.64374639740000   -0.00025267720000
C        -0.16216470520000    0.51905220320000   -0.00010530540000
C        -1.57119615330000    0.81207505620000   -0.00026501870000
C        -2.53074223810000   -0.10360205610000    0.00000532080000
F        -2.35743011880000   -1.41678277230000    0.00057094990000
F        -3.82441106560000    0.17682547940000   -0.00021222890000
O         0.68973695840000    1.56499100040000    0.00016013670000
N         1.95637643990000    1.11359776020000    0.00015032620000
H         5.19791189160000   -1.19583783850000    0.00005715220000
H         4.50769173700000    0.51122134930000    0.00071058850000
H         2.91103685730000   -2.10048057080000   -0.00087176340000
H         0.20610746790000   -1.65000599010000   -0.00042734160000
H        -1.85235082280000    1.85289637470000   -0.00062383570000
$end

$rem
BASIS = 6-31G*
GUI = 2
METHOD = B3LYP
PRINT_ORBITALS false
MOLDEN_FORMAT false
--------------------------------------------------------------

             Standard Nuclear Orientation (Angstroms)
    I     Atom           X                Y                Z
 ----------------------------------------------------------------
    1      C       4.2418449357     0.4417600073    -0.0001854239
    2      C       3.0189992686     0.9558040271     0.0003109831
    3      C       1.8150295960     0.1506151943     0.0001259402
    4      C       0.4756295148     0.6243386122     0.0002600740
    5      C      -0.2808048635    -0.5207293136     0.0000819418
    6      C      -1.6964295936    -0.7800334585     0.0002352223
    7      C      -2.6338439757     0.1582882095    -0.0000092436
    8      F      -2.4292340976     1.4669575798    -0.0005394347
    9      F      -3.9338382937    -0.0911780481     0.0002020909
   10      O       0.5458862737    -1.5867059358    -0.0002127918
   11      N       1.8229400975    -1.1656774758    -0.0001920990
   12      H       5.1186807560     1.0657208228    -0.0000397625
   13      H       4.3879078030    -0.6243755537    -0.0007387657
   14      H       2.8540522528     2.0246961027     0.0009161559
   15      H       0.1391403008     1.6389196990     0.0004624247
   16      H      -2.0023497571    -1.8138467095     0.0005661061
 ----------------------------------------------------------------

    9    -599.3064283427      7.32e-06  Convergence criterion met
 Total energy in the final basis set =     -599.3064283427

                    Orbital Energies (a.u.)
 --------------------------------------------------------------

 Alpha MOs
 -- Occupied --
-24.7615 -24.7553 -19.2445 -14.3731 -10.3797 -10.2691 -10.2267 -10.2250
-10.2006 -10.1969 -10.1888  -1.3057  -1.2453  -1.1652  -0.8817  -0.8421
 -0.7811  -0.7704  -0.6681  -0.6410  -0.6258  -0.5984  -0.5604  -0.5388
 -0.5313  -0.5119  -0.4826  -0.4693  -0.4594  -0.4592  -0.4475  -0.4362
 -0.4109  -0.3970  -0.3692  -0.3427  -0.3210  -0.2955  -0.2538  -0.2327

          Ground-State Mulliken Net Atomic Charges

     Atom                 Charge (a.u.)
  ----------------------------------------
      1 C                    -0.332591
      2 C                    -0.097323
      3 C                     0.311874
      4 C                    -0.309142
      5 C                     0.427735
      6 C                    -0.305023
      7 C                     0.573665
      8 F                    -0.230015
      9 F                    -0.234054
     10 O                    -0.371215
     11 N                    -0.236537
     12 H                     0.148118
     13 H                     0.175673
     14 H                     0.135145
     15 H                     0.154269
     16 H                     0.189420
  ----------------------------------------
  Sum of atomic charges =     0.000000

                    Cartesian Multipole Moments
 -----------------------------------------------------------------
    Charge (ESU x 10^10)
                 0.0000
    Dipole Moment (Debye)
         X      -0.8870      Y       1.7178      Z       0.0009
       Tot       1.9333
    Quadrupole Moments (Debye-Ang)
        XX     -57.3884     XY       6.5269     YY     -59.7446
        XZ      -0.0002     YZ       0.0009     ZZ     -61.7704

 Total job time:  16.63s(wall), 15.90s(cpu)
        *  Thank you very much for using Q-Chem.  Have a nice day.  *
