 Q-Chem 5.2, Q-Chem, Inc., Pleasanton, CA (2019)
 Q-Chem 5.2.1 for Intel X86 EM64T Linux

User input:
--------------------------------------------------------------
$molecule
0 1
C        -3.83299164450000   -0.51189423460000    0.31271284420000
C        -3.00628617110000    0.48217714640000    0.01013076300000
C        -1.55223290060000    0.41958239310000   -0.05551416480000
C        -0.82862224530000    1.60580860710000   -0.20606611800000
C         0.54672879620000    1.57964281210000   -0.26108278670000
C         1.26789459080000    0.39068284560000   -0.15368268270000
C         2.72509420920000    0.46435889620000   -0.18080953110000
C         3.57068581710000   -0.30338503180000    0.49797030730000
C         0.54686971200000   -0.81493065130000   -0.04452591480000
N         1.18694674060000   -2.03716763920000    0.03790537280000
C        -0.84406051260000   -0.77481954950000    0.00352325640000
H        -4.89923414910000   -0.36508534610000    0.34162437620000
H        -3.48903018710000   -1.50390814120000    0.55088903160000
H        -3.42143371520000    1.46078940640000   -0.20056104100000
H        -1.35351157990000    2.54736878470000   -0.27659038140000
H         1.09406543200000    2.50559029730000   -0.37131439310000
H         3.12157430220000    1.26990290260000   -0.78934172260000
H         3.23724726720000   -1.06802402190000    1.17849717850000
H         4.63585379410000   -0.15520304810000    0.43085779000000
H         2.11089312420000   -2.07020034080000   -0.36577298150000
H         0.61034315060000   -2.83439878020000   -0.18368305320000
H        -1.37559629270000   -1.71221348020000    0.08032517620000
$end

$rem
BASIS = 6-31G*
GUI = 2
METHOD = B3LYP
PRINT_ORBITALS false
MOLDEN_FORMAT false
--------------------------------------------------------------

             Standard Nuclear Orientation (Angstroms)
    I     Atom           X                Y                Z
 ----------------------------------------------------------------
    1      C       3.7982672713    -0.7567457607    -0.2273774122
    2      C       3.0321043984     0.3121415516    -0.0439376894
    3      C       1.5769177100     0.3432549352     0.0190061945
    4      C       0.9250304033     1.5795088269     0.0304148031
    5      C      -0.4494336139     1.6409126712     0.0792021302
    6      C      -1.2399258936     0.4920627630     0.1017083869
    7      C      -2.6901760919     0.6541813371     0.1110188385
    8      C      -3.5800338848    -0.1339634873    -0.4824277214
    9      C      -0.5917589471    -0.7586005455     0.1335969141
   10      N      -1.3032735332    -1.9424261392     0.1851791965
   11      C       0.7990864216    -0.8063060882     0.0902626965
   12      H       4.8713354650    -0.6773047933    -0.2657908126
   13      H       3.3959671317    -1.7472542237    -0.3545644940
   14      H       3.5046620384     1.2820578738     0.0579057191
   15      H       1.5048981346     2.4903939150    -0.0021401311
   16      H      -0.9408171413     2.6040565934     0.0809796267
   17      H      -3.0379763313     1.5451869576     0.6224413803
   18      H      -3.2927563054    -0.9887948941    -1.0703951801
   19      H      -4.6345103029     0.0834318924    -0.4392589578
   20      H      -2.2274390368    -1.8751542274     0.5840738000
   21      H      -0.7749424555    -2.7422117681     0.4988029243
   22      H       1.2740268956    -1.7761015710     0.1228889038
 ----------------------------------------------------------------

    8    -442.3978832526      8.20e-06  Convergence criterion met
 Total energy in the final basis set =     -442.3978832526

                    Orbital Energies (a.u.)
 --------------------------------------------------------------

 Alpha MOs
 -- Occupied --
-14.3366 -10.2242 -10.1902 -10.1883 -10.1852 -10.1849 -10.1803 -10.1760
-10.1754 -10.1745 -10.1716  -0.9227  -0.8451  -0.8010  -0.7633  -0.7273
 -0.7103  -0.6295  -0.6100  -0.5668  -0.5614  -0.5189  -0.4907  -0.4808
 -0.4593  -0.4507  -0.4247  -0.4184  -0.4125  -0.3882  -0.3757  -0.3564
 -0.3459  -0.3345  -0.3212  -0.2990  -0.2633  -0.2179  -0.1936

          Ground-State Mulliken Net Atomic Charges

     Atom                 Charge (a.u.)
  ----------------------------------------
      1 C                    -0.351194
      2 C                    -0.118221
      3 C                     0.181549
      4 C                    -0.205168
      5 C                    -0.202596
      6 C                     0.137949
      7 C                    -0.140526
      8 C                    -0.368693
      9 C                     0.271582
     10 N                    -0.807671
     11 C                    -0.244633
     12 H                     0.141952
     13 H                     0.140073
     14 H                     0.126223
     15 H                     0.119091
     16 H                     0.124571
     17 H                     0.133383
     18 H                     0.165978
     19 H                     0.140268
     20 H                     0.324326
     21 H                     0.320974
     22 H                     0.110783
  ----------------------------------------
  Sum of atomic charges =     0.000000

                    Cartesian Multipole Moments
 -----------------------------------------------------------------
    Charge (ESU x 10^10)
                 0.0000
    Dipole Moment (Debye)
         X      -0.5637      Y      -0.9147      Z       1.0653
       Tot       1.5131
    Quadrupole Moments (Debye-Ang)
        XX     -59.3526     XY       0.6763     YY     -56.6294
        XZ      -1.9443     YZ      -1.5698     ZZ     -69.1443

 Total job time:  21.87s(wall), 21.79s(cpu)
        *  Thank you very much for using Q-Chem.  Have a nice day.  *
