 Q-Chem 5.2, Q-Chem, Inc., Pleasanton, CA (2019)
 Q-Chem 5.2.1 for Intel X86 EM64T Linux

User input:
--------------------------------------------------------------
$molecule
0 1
F        -6.21220537660000   -1.26605005590000   -0.24640574210000
C        -4.88095756170000   -1.36601159480000   -0.22977478200000
F        -4.54889005370000   -2.64683445420000   -0.36427594900000
C        -4.08087555060000   -0.31812899760000   -0.09875375980000
C        -2.62922357700000   -0.27386841150000   -0.06548782360000
C        -2.02119240510000    0.97427320260000    0.05516560380000
C        -0.64033378330000    1.05970110870000    0.08372399520000
C         0.27873160280000    2.15630878810000    0.21378649450000
C         0.11725966940000    3.53043346150000    0.33135634710000
C         1.24426679920000    4.32296693370000    0.41718218740000
C         2.51926206820000    3.76307282520000    0.37246979980000
C         2.70523805810000    2.39885872110000    0.25602429100000
C         1.57606922400000    1.59528956510000    0.19268870670000
N         1.47885663280000    0.22384057260000    0.05258659550000
C         2.55664893380000   -0.67321364770000   -0.00950171690000
C         3.55093090450000   -0.63827251360000    0.96332182750000
C         4.61303221780000   -1.52088903600000    0.89510736700000
C         4.68692260240000   -2.44710136250000   -0.13196536900000
C         3.69489532960000   -2.48598283570000   -1.09765572340000
C         2.63407678440000   -1.60085084660000   -1.04378960090000
C         0.14646796770000   -0.11262015920000   -0.01640281330000
C        -0.45333401340000   -1.36186005570000   -0.11091225480000
C        -1.82954822310000   -1.42737734090000   -0.13820028540000
H        -4.59036793760000    0.63073856250000   -0.00815781970000
H        -2.62185579090000    1.86844531000000    0.12911255650000
H        -0.87048342860000    3.96544099810000    0.35038042190000
H         1.14153157170000    5.39364754320000    0.51137228910000
H         3.38209855240000    4.41028882160000    0.42644224710000
H         3.69710226300000    1.97586512590000    0.20484931660000
H         3.47773400030000    0.07093326190000    1.77426708920000
H         5.38214752370000   -1.49036711700000    1.65251347740000
H         5.51560792460000   -3.13715794030000   -0.17954911930000
H         3.75072811300000   -3.20406636620000   -1.90219376050000
H         1.86953590050000   -1.61341661050000   -1.80620156040000
H         0.13881294410000   -2.26332296750000   -0.15095504220000
H        -2.29662383480000   -2.39508133390000   -0.21251778100000
$end

$rem
BASIS = 6-31G*
GUI = 2
METHOD = B3LYP
PRINT_ORBITALS false
MOLDEN_FORMAT false
--------------------------------------------------------------

             Standard Nuclear Orientation (Angstroms)
    I     Atom           X                Y                Z
 ----------------------------------------------------------------
    1      F       6.4320956383     0.2644978078     0.0757327971
    2      C       5.1343690942     0.5780739538     0.0676420537
    3      F       5.0168426684     1.9028309956     0.0761808126
    4      C       4.1725989551    -0.3330324553     0.0521830390
    5      C       2.7324212659    -0.1430166773     0.0402959911
    6      C       1.9286692731    -1.2806246958    -0.0038330793
    7      C       0.5519750599    -1.1419973659    -0.0233150954
    8      C      -0.5348424602    -2.0813203793    -0.0487275852
    9      C      -0.5996183962    -3.4677676602    -0.0897457419
   10      C      -1.8410945092    -4.0701183712    -0.1288754203
   11      C      -3.0073513100    -3.3080389682    -0.1420513223
   12      C      -2.9683694305    -1.9274291474    -0.1017563736
   13      C      -1.7240420068    -1.3171337232    -0.0389407825
   14      N      -1.4035416879     0.0269589837    -0.0135327273
   15      C      -2.3208816676     1.0892523911     0.0012170227
   16      C      -3.3518093188     1.1084483188     0.9355739476
   17      C      -4.2556895830     2.1547131671     0.9429680698
   18      C      -4.1338959630     3.1896926877     0.0307229416
   19      C      -3.1048936568     3.1739283199    -0.8961500152
   20      C      -2.2020175784     2.1270145957    -0.9181187195
   21      C      -0.0328500310     0.1468375637    -0.0058890943
   22      C       0.7617566686     1.2839378382     0.0640961091
   23      C       2.1306446224     1.1264107032     0.0823628533
   24      H       4.5199314778    -1.3564748039     0.0440811080
   25      H       2.3753818836    -2.2634829379    -0.0195153015
   26      H       0.3044042677    -4.0576348686    -0.0951862964
   27      H      -1.9144457320    -5.1469197583    -0.1589027500
   28      H      -3.9637199010    -3.8075350806    -0.1884315058
   29      H      -3.8768863003    -1.3450633337    -0.1297602483
   30      H      -3.4298074219     0.3104987977     1.6588689732
   31      H      -5.0539327810     2.1655898400     1.6701705534
   32      H      -4.8391675145     4.0067732683     0.0422563922
   33      H      -3.0086541156     3.9770256062    -1.6115627696
   34      H      -1.4109115428     2.0998454547    -1.6525339534
   35      H       0.3230407340     2.2687535479     0.1145259829
   36      H       2.7486398356     2.0069715795     0.1355436296
 ----------------------------------------------------------------

    9   -1024.3866348607      5.37e-06  Convergence criterion met
 Total energy in the final basis set =    -1024.3866348607

                    Orbital Energies (a.u.)
 --------------------------------------------------------------

 Alpha MOs
 -- Occupied --
-24.7366 -24.7254 -14.3850 -10.3467 -10.2390 -10.2228 -10.2224 -10.1996
-10.1996 -10.1988 -10.1988 -10.1972 -10.1964 -10.1960 -10.1883 -10.1878
-10.1867 -10.1863 -10.1863 -10.1855 -10.1849 -10.1847 -10.1791  -1.2764
 -1.2157  -1.0047  -0.8791  -0.8571  -0.8481  -0.8068  -0.7835  -0.7630
 -0.7596  -0.7480  -0.7207  -0.7161  -0.6560  -0.6384  -0.6247  -0.6209
 -0.6012  -0.5838  -0.5812  -0.5641  -0.5455  -0.5320  -0.5191  -0.5105
 -0.4996  -0.4841  -0.4756  -0.4652  -0.4542  -0.4517  -0.4429  -0.4374
 -0.4368  -0.4330  -0.4303  -0.4235  -0.4193  -0.4118  -0.4013  -0.3812
 -0.3789  -0.3693  -0.3659  -0.3618  -0.3594  -0.3431  -0.3352  -0.3351
 -0.2934  -0.2766  -0.2649  -0.2619  -0.2380  -0.2129  -0.1912

          Ground-State Mulliken Net Atomic Charges

     Atom                 Charge (a.u.)
  ----------------------------------------
      1 F                    -0.254169
      2 C                     0.530866
      3 F                    -0.238952
      4 C                    -0.290974
      5 C                     0.186099
      6 C                    -0.276820
      7 C                     0.066161
      8 C                     0.062246
      9 C                    -0.194056
     10 C                    -0.146046
     11 C                    -0.138630
     12 C                    -0.176181
     13 C                     0.308640
     14 N                    -0.731349
     15 C                     0.275268
     16 C                    -0.153189
     17 C                    -0.141353
     18 C                    -0.120210
     19 C                    -0.141199
     20 C                    -0.153970
     21 C                     0.319162
     22 C                    -0.174705
     23 C                    -0.211945
     24 H                     0.155227
     25 H                     0.128425
     26 H                     0.128957
     27 H                     0.122770
     28 H                     0.126000
     29 H                     0.139939
     30 H                     0.152666
     31 H                     0.137666
     32 H                     0.133783
     33 H                     0.137964
     34 H                     0.152771
     35 H                     0.142172
     36 H                     0.136965
  ----------------------------------------
  Sum of atomic charges =     0.000000

                    Cartesian Multipole Moments
 -----------------------------------------------------------------
    Charge (ESU x 10^10)
                 0.0000
    Dipole Moment (Debye)
         X      -2.6308      Y       0.5512      Z      -0.0069
       Tot       2.6879
    Quadrupole Moments (Debye-Ang)
        XX    -125.9438     XY      -8.5600     YY    -117.1868
        XZ      -2.6140     YZ      -1.9523     ZZ    -130.5400

 Total job time:  104.40s(wall), 104.12s(cpu)
        *  Thank you very much for using Q-Chem.  Have a nice day.  *
