 Q-Chem 5.2, Q-Chem, Inc., Pleasanton, CA (2019)
 Q-Chem 5.2.1 for Intel X86 EM64T Linux

User input:
--------------------------------------------------------------
$molecule
0 1
C         0.46994007780000   -2.16206521480000   -2.67896076490000
C         0.28845058980000   -0.85371512490000   -2.61999527310000
C        -0.04360880080000   -0.11028313590000   -1.39187272310000
C        -1.27894683030000    0.52124117960000   -1.33020533640000
C        -1.71001084670000    1.22534880020000   -0.21421462470000
C        -3.12820308590000    1.72733762630000   -0.18814061410000
C        -4.10917637680000    0.54703719650000   -0.20326979860000
C        -3.94348539120000   -0.32886713630000    1.03618868680000
C        -4.75115427960000   -1.62564922860000    0.98033463690000
C        -4.33782046710000   -2.58932241800000   -0.13517735380000
C        -2.86552036080000   -2.98243369950000   -0.08444400760000
C        -0.83713168150000    1.33926772310000    0.87161223980000
C        -1.13761849920000    2.10721713940000    2.08696446710000
C        -1.53420870980000    3.37031035960000    2.10877094610000
C         0.40007188720000    0.70145881730000    0.80917373910000
C         0.81544117300000   -0.02762137810000   -0.29211379550000
C         2.19743680760000   -0.61618302270000   -0.31194182190000
C         3.16167903500000    0.34135942680000   -1.02131709620000
C         4.56919461930000   -0.23193888790000   -1.18632629930000
C         5.29021193950000   -0.56449522850000    0.12096800900000
C         5.50681084600000    0.64713293830000    1.02477215080000
C         6.34722035530000    0.29147954630000    2.24541496480000
H         0.68125052620000   -2.66683134120000   -3.60682150810000
H         0.39968459280000   -2.78471230750000   -1.80166599090000
H         0.32249764950000   -0.25915377920000   -3.52600587670000
H        -1.93727928890000    0.44225797360000   -2.18502884580000
H        -3.31178325230000    2.35641957830000   -1.06309700800000
H        -3.30668127930000    2.32245843400000    0.70629265590000
H        -3.93287302280000   -0.04912580340000   -1.09838397000000
H        -5.13272948610000    0.92635675230000   -0.25021482740000
H        -4.25624752430000    0.24065844080000    1.91546775980000
H        -2.88763048090000   -0.56929850030000    1.16615319230000
H        -5.81012545870000   -1.38372925690000    0.85674153550000
H        -4.64083216240000   -2.13851950920000    1.93937138490000
H        -4.55923077560000   -2.14859958820000   -1.10877513730000
H        -4.94960089060000   -3.49071395870000   -0.04435565290000
H        -2.22389624020000   -2.13547141960000   -0.31524072020000
H        -2.66232706990000   -3.76579115850000   -0.81173551190000
H        -2.60480177270000   -3.35586309940000    0.90377998250000
H        -0.94856965300000    1.58688327320000    3.01880046140000
H        -1.68391464520000    3.93541531960000    1.20346451760000
H        -1.70593396440000    3.89541054540000    3.03358505300000
H         1.06606276900000    0.79049290180000    1.65735380320000
H         2.20331503000000   -1.57175378250000   -0.83558846980000
H         2.53046625520000   -0.78123948170000    0.71330226260000
H         3.20163365780000    1.28472563810000   -0.47395698330000
H         2.76161558140000    0.55861850350000   -2.01505622540000
H         5.17117758100000    0.49018966050000   -1.74415542820000
H         4.50616380770000   -1.14219275970000   -1.78849416610000
H         6.26497574370000   -0.99220536740000   -0.12862200210000
H         4.73364573440000   -1.32863359290000    0.66662734240000
H         4.54388835960000    1.03708294460000    1.35842246560000
H         6.00665625570000    1.43534148310000    0.45678127950000
H         5.86081532670000   -0.48729839710000    2.82939435040000
H         6.48614728400000    1.16172324920000    2.88297964950000
H         7.32718102040000   -0.07188375200000    1.94295942630000
$end

$rem
BASIS = 6-31G*
GUI = 2
METHOD = B3LYP
PRINT_ORBITALS false
MOLDEN_FORMAT false
--------------------------------------------------------------

             Standard Nuclear Orientation (Angstroms)
    I     Atom           X                Y                Z
 ----------------------------------------------------------------
    1      C       0.2902149438     3.3662919162     0.7718023642
    2      C       0.1890614676     2.2967658475     1.5425664550
    3      C      -0.0850424357     0.9349651074     1.0510327802
    4      C      -1.2791006361     0.3364254739     1.4313763040
    5      C      -1.6555229288    -0.9303169478     1.0063011451
    6      C      -3.0403047439    -1.4152816930     1.3396633856
    7      C      -4.0912062802    -0.5355785193     0.6487401760
    8      C      -3.9666701234    -0.6113123328    -0.8710211128
    9      C      -4.8520695908     0.3940820892    -1.6074600732
   10      C      -4.5090927370     1.8625608322    -1.3432349474
   11      C      -3.0629340787     2.2175964648    -1.6708823033
   12      C      -0.7665898738    -1.6467200403     0.1997776362
   13      C      -1.0078198841    -3.0180679462    -0.2674831829
   14      C      -1.3267829696    -4.0406876139     0.5107682969
   15      C       0.4289412458    -1.0426866580    -0.1839155386
   16      C       0.7883290191     0.2336119100     0.2146145135
   17      C       2.1317905497     0.7804552528    -0.1762606181
   18      C       3.1452720806     0.5239203231     0.9448588724
   19      C       4.5136886325     1.1503458330     0.6764816458
   20      C       5.2261510347     0.6374209566    -0.5760292327
   21      C       5.5248591535    -0.8596590022    -0.5393565671
   22      C       6.3542246903    -1.2943014402    -1.7418477793
   23      H       0.4612679440     4.3485207779     1.1796428245
   24      H       0.1910223419     3.3047039931    -0.2999434598
   25      H       0.2501241925     2.3962022632     2.6204817359
   26      H      -1.9494768058     0.8936003251     2.0720908905
   27      H      -3.1940535103    -1.3738180091     2.4211607508
   28      H      -3.1734360737    -2.4456496855     1.0130872616
   29      H      -3.9603156934     0.4959104160     0.9752685905
   30      H      -5.0902667897    -0.8580671944     0.9514401622
   31      H      -4.2355352470    -1.6194704436    -1.1975789057
   32      H      -2.9261144094    -0.4472508432    -1.1536078054
   33      H      -5.8955820015     0.2247328330    -1.3288507344
   34      H      -4.7635513904     0.2055937146    -2.6805840358
   35      H      -4.7130123433     2.1105421402    -0.3001271647
   36      H      -5.1735196619     2.4782017244    -1.9552428974
   37      H      -2.3734146078     1.7330386530    -0.9838158113
   38      H      -2.9148976431     3.2927149236    -1.5928126709
   39      H      -2.8155510553     1.9100205629    -2.6848887420
   40      H      -0.8414473133    -3.1795994593    -1.3262715739
   41      H      -1.4509061736    -3.9285269759     1.5753567779
   42      H      -1.4571218748    -5.0347992985     0.1167446569
   43      H       1.1075053193    -1.6031848951    -0.8134176183
   44      H       2.0744575165     1.8531967706    -0.3587281541
   45      H       2.4643620737     0.2908257139    -1.0921955374
   46      H       3.2478461739    -0.5515384519     1.0997983842
   47      H       2.7492748575     0.9495617525     1.8704858507
   48      H       5.1528151376     0.9643444621     1.5436305743
   49      H       4.3895469423     2.2327016592     0.5857301146
   50      H       6.1706303562     1.1792574811    -0.6748604140
   51      H       4.6296846968     0.8662720591    -1.4610561077
   52      H       4.5907424875    -1.4235253484    -0.5301885410
   53      H       6.0659509756    -1.0965151985     0.3798009580
   54      H       5.8272790823    -1.0740256863    -2.6680895287
   55      H       6.5520423485    -2.3632689321    -1.7059284756
   56      H       7.3072709340    -0.7696806802    -1.7594846718
 ----------------------------------------------------------------

    8    -858.7910959650      5.55e-06  Convergence criterion met
 Total energy in the final basis set =     -858.7910959650

                    Orbital Energies (a.u.)
 --------------------------------------------------------------

 Alpha MOs
 -- Occupied --
-10.1882 -10.1867 -10.1863 -10.1855 -10.1839 -10.1838 -10.1787 -10.1770
-10.1763 -10.1763 -10.1738 -10.1725 -10.1724 -10.1714 -10.1703 -10.1700
-10.1699 -10.1675 -10.1664 -10.1661 -10.1632 -10.1590  -0.8679  -0.8184
 -0.8032  -0.7995  -0.7797  -0.7690  -0.7586  -0.7367  -0.7148  -0.7077
 -0.6822  -0.6507  -0.6308  -0.6208  -0.6058  -0.5945  -0.5828  -0.5669
 -0.5504  -0.5432  -0.5280  -0.4910  -0.4866  -0.4730  -0.4645  -0.4586
 -0.4516  -0.4467  -0.4433  -0.4312  -0.4275  -0.4241  -0.4193  -0.4113
 -0.4061  -0.3963  -0.3940  -0.3912  -0.3838  -0.3753  -0.3722  -0.3602
 -0.3562  -0.3516  -0.3487  -0.3461  -0.3407  -0.3341  -0.3315  -0.3256
 -0.3203  -0.3144  -0.3106  -0.3075  -0.3043  -0.3030  -0.2998  -0.2788
 -0.2623  -0.2321  -0.2160

          Ground-State Mulliken Net Atomic Charges

     Atom                 Charge (a.u.)
  ----------------------------------------
      1 C                    -0.318960
      2 C                    -0.155192
      3 C                     0.084605
      4 C                    -0.242485
      5 C                     0.121423
      6 C                    -0.346553
      7 C                    -0.259745
      8 C                    -0.261966
      9 C                    -0.250646
     10 C                    -0.251608
     11 C                    -0.456269
     12 C                     0.096230
     13 C                    -0.144018
     14 C                    -0.326758
     15 C                    -0.252866
     16 C                     0.136403
     17 C                    -0.349328
     18 C                    -0.256293
     19 C                    -0.256557
     20 C                    -0.250837
     21 C                    -0.252017
     22 C                    -0.441155
     23 H                     0.141638
     24 H                     0.150020
     25 H                     0.141440
     26 H                     0.122205
     27 H                     0.135727
     28 H                     0.149175
     29 H                     0.139257
     30 H                     0.127303
     31 H                     0.125791
     32 H                     0.149246
     33 H                     0.122761
     34 H                     0.123667
     35 H                     0.132630
     36 H                     0.127174
     37 H                     0.165289
     38 H                     0.137485
     39 H                     0.137403
     40 H                     0.137314
     41 H                     0.148797
     42 H                     0.140853
     43 H                     0.117000
     44 H                     0.145020
     45 H                     0.139862
     46 H                     0.139959
     47 H                     0.135494
     48 H                     0.126239
     49 H                     0.127368
     50 H                     0.126458
     51 H                     0.132634
     52 H                     0.135223
     53 H                     0.130643
     54 H                     0.140819
     55 H                     0.140803
     56 H                     0.141892
  ----------------------------------------
  Sum of atomic charges =     0.000000

                    Cartesian Multipole Moments
 -----------------------------------------------------------------
    Charge (ESU x 10^10)
                 0.0000
    Dipole Moment (Debye)
         X       0.2436      Y       0.0221      Z       0.1927
       Tot       0.3114
    Quadrupole Moments (Debye-Ang)
        XX    -138.9282     XY       2.1244     YY    -134.0996
        XZ      -1.6870     YZ       1.9732     ZZ    -136.2991

 Total job time:  136.82s(wall), 134.61s(cpu)
        *  Thank you very much for using Q-Chem.  Have a nice day.  *
