 Q-Chem 5.2, Q-Chem, Inc., Pleasanton, CA (2019)
 Q-Chem 5.2.1 for Intel X86 EM64T Linux

User input:
--------------------------------------------------------------
$molecule
0 1
C         2.82155234370000    2.32071405170000   -0.26872227290000
C         2.53252547730000    1.09014809340000    0.13505067450000
C         1.23183119340000    0.42712239240000    0.06287302990000
C         1.19381146620000   -0.97084890940000    0.07831484140000
F         2.34080455050000   -1.66012567110000    0.15305386150000
C        -0.00001984390000   -1.67254510320000    0.00035251960000
F        -0.00004687900000   -3.01126249520000    0.00061841030000
C        -1.19382899740000   -0.97084435160000   -0.07788280380000
F        -2.34083365550000   -1.66013313470000   -0.15235080660000
C        -1.23182487990000    0.42713688190000   -0.06299244900000
C        -2.53252300170000    1.09011663570000   -0.13540247160000
C        -2.82150344140000    2.32099980610000    0.26744343900000
C         0.00001523590000    1.08364729750000   -0.00018997220000
F         0.00005049960000    2.42584202090000   -0.00042656800000
H         3.82363032670000    2.70241821010000   -0.17609107040000
H         2.09864625470000    2.98432262630000   -0.70782816330000
H         3.31885848150000    0.46306803210000    0.53412945590000
H        -3.31892840870000    0.46272116280000   -0.53384190260000
H        -2.09853393840000    2.98500575450000    0.70583896910000
H        -3.82361601740000    2.70258682920000    0.17469386850000
$end

$rem
BASIS = 6-31G*
GUI = 2
METHOD = B3LYP
PRINT_ORBITALS false
MOLDEN_FORMAT false
--------------------------------------------------------------

             Standard Nuclear Orientation (Angstroms)
    I     Atom           X                Y                Z
 ----------------------------------------------------------------
    1      C       2.8193321288    -2.2422516725     0.2895784612
    2      C       2.5334292234    -1.0115832368    -0.1161017459
    3      C       1.2322559116    -0.3485114568    -0.0536346347
    4      C       1.1944185302     1.0494650145    -0.0690563106
    5      F       2.3419766232     1.7387035476    -0.1349515193
    6      C       0.0000630763     1.7512009246     0.0000134472
    7      F       0.0000995957     3.0899183424     0.0000420554
    8      C      -1.1943368023     1.0495398636     0.0690474325
    9      F      -2.3418410445     1.7388669007     0.1349750119
   10      C      -1.2322830442    -0.3484362520     0.0535618963
   11      C      -2.5335229091    -1.0113699441     0.1159694520
   12      C      -2.8194995624    -2.2421507809    -0.2893252397
   13      C      -0.0000326537    -1.0049915273    -0.0000505400
   14      F      -0.0000608825    -2.3471862705    -0.0001091454
   15      H       3.8220656043    -2.6239831971     0.2044579095
   16      H       2.0930894927    -2.9059223005     0.7230487229
   17      H       3.3227920184    -0.3844529396    -0.5090735498
   18      H      -3.3228955943    -0.3840245949     0.5085775270
   19      H      -2.0932599248    -2.9060948014    -0.7223769329
   20      H      -3.8223036143    -2.6237104428    -0.2042546111
 ----------------------------------------------------------------

    9    -783.9593691597      3.09e-06  Convergence criterion met
 Total energy in the final basis set =     -783.9593691597

                    Orbital Energies (a.u.)
 --------------------------------------------------------------

 Alpha MOs
 -- Occupied --
-24.7328 -24.7328 -24.7302 -24.7274 -10.2989 -10.2988 -10.2964 -10.2934
-10.2259 -10.2259 -10.2057 -10.2057 -10.1907 -10.1907  -1.2532  -1.2459
 -1.2443  -1.2332  -0.8994  -0.8269  -0.8009  -0.7529  -0.7481  -0.6637
 -0.6631  -0.6052  -0.5918  -0.5829  -0.5617  -0.5471  -0.5289  -0.5104
 -0.5090  -0.4919  -0.4824  -0.4779  -0.4576  -0.4563  -0.4422  -0.4365
 -0.4332  -0.4166  -0.4097  -0.3782  -0.3741  -0.3669  -0.3479  -0.3255
 -0.2885  -0.2416  -0.2354

          Ground-State Mulliken Net Atomic Charges

     Atom                 Charge (a.u.)
  ----------------------------------------
      1 C                    -0.339290
      2 C                    -0.109478
      3 C                     0.014478
      4 C                     0.247919
      5 F                    -0.269202
      6 C                     0.263517
      7 F                    -0.271180
      8 C                     0.247904
      9 F                    -0.269205
     10 C                     0.014513
     11 C                    -0.109476
     12 C                    -0.339316
     13 C                     0.272903
     14 F                    -0.276266
     15 H                     0.148952
     16 H                     0.160512
     17 H                     0.151624
     18 H                     0.151623
     19 H                     0.160518
     20 H                     0.148948
  ----------------------------------------
  Sum of atomic charges =     0.000000

                    Cartesian Multipole Moments
 -----------------------------------------------------------------
    Charge (ESU x 10^10)
                 0.0000
    Dipole Moment (Debye)
         X       0.0001      Y      -1.5822      Z       0.0000
       Tot       1.5822
    Quadrupole Moments (Debye-Ang)
        XX     -71.6020     XY      -0.0009     YY     -78.6702
        XZ      -0.7329     YZ      -0.0009     ZZ     -76.6963

 Total job time:  32.88s(wall), 32.77s(cpu)
        *  Thank you very much for using Q-Chem.  Have a nice day.  *
