 Q-Chem 5.2, Q-Chem, Inc., Pleasanton, CA (2019)
 Q-Chem 5.2.1 for Intel X86 EM64T Linux

User input:
--------------------------------------------------------------
$molecule
0 1
C        -3.60325836510000    0.59959594530000    0.01672383330000
C        -2.34050860840000    1.00591822810000   -0.00527989600000
C        -1.15291901980000    0.15648457040000   -0.00273772950000
C        -1.19465197320000   -1.24084838630000    0.00374025750000
C         0.00001258130000   -1.93827808550000    0.00565692930000
C         1.19465959520000   -1.24082178010000    0.00165610600000
C         1.15289433220000    0.15650735100000   -0.00511947770000
C         2.34044478960000    1.00598347490000   -0.01020298020000
C         3.60334366200000    0.59962932500000    0.00169219320000
N        -0.00002629300000    0.81861953310000   -0.00791999620000
H        -4.41713574570000    1.30438397090000    0.01383521890000
H        -3.88342035040000   -0.44012214470000    0.03937682680000
H        -2.10694784010000    2.06180509790000   -0.02520257400000
H        -2.13556724860000   -1.76684426930000    0.00609278090000
H         0.00002932480000   -3.01954934500000    0.01007846020000
H         2.13557249310000   -1.76679590400000    0.00276880040000
H         2.10676049940000    2.06196644060000   -0.02377286450000
H         3.88375526720000   -0.44017978180000    0.01666086830000
H         4.41711647900000    1.30452057140000   -0.00281523550000
$end

$rem
BASIS = 6-31G*
GUI = 2
METHOD = B3LYP
PRINT_ORBITALS false
MOLDEN_FORMAT false
--------------------------------------------------------------

             Standard Nuclear Orientation (Angstroms)
    I     Atom           X                Y                Z
 ----------------------------------------------------------------
    1      C       3.6032771038     0.6045204793    -0.0125298306
    2      C       2.3404874682     1.0109038022     0.0057414791
    3      C       1.1529117884     0.1614479864     0.0043798490
    4      C       1.1946686080    -1.2358988528     0.0032960412
    5      C       0.0000155068    -1.9333495413     0.0019687335
    6      C      -1.1946429904    -1.2359018046     0.0012462991
    7      C      -1.1529022334     0.1614436528     0.0027721768
    8      C      -2.3404674418     1.0109143404     0.0025657033
    9      C      -3.6033401442     0.6044980150    -0.0099666698
   10      N       0.0000057932     0.8235797916     0.0050456131
   11      H       4.4171418523     1.3093271669    -0.0109174179
   12      H       3.8834873281    -0.4352719495    -0.0307380163
   13      H       2.1068829677     2.0668552262     0.0212384177
   14      H       2.1355913337    -1.7618851148     0.0045747482
   15      H       0.0000162567    -3.0146297986     0.0016653710
   16      H      -2.1355477666    -1.7618911172     0.0005089700
   17      H      -2.1068165927     2.0669449967     0.0125179235
   18      H      -3.8837159655    -0.4353649605    -0.0214601122
   19      H      -4.4171259587     1.3093885454    -0.0095518655
 ----------------------------------------------------------------

    8    -403.0858731534      9.78e-06  Convergence criterion met
 Total energy in the final basis set =     -403.0858731534

                    Orbital Energies (a.u.)
 --------------------------------------------------------------

 Alpha MOs
 -- Occupied --
-14.3199 -10.2246 -10.2246 -10.2049 -10.1944 -10.1944 -10.1869 -10.1869
-10.1839 -10.1839  -0.9489  -0.8135  -0.8046  -0.7720  -0.7258  -0.6551
 -0.6278  -0.5937  -0.5419  -0.5142  -0.5028  -0.4675  -0.4546  -0.4344
 -0.4142  -0.4138  -0.4102  -0.3759  -0.3580  -0.3513  -0.3218  -0.2972
 -0.2592  -0.2519  -0.2237

          Ground-State Mulliken Net Atomic Charges

     Atom                 Charge (a.u.)
  ----------------------------------------
      1 C                    -0.347756
      2 C                    -0.088963
      3 C                     0.307035
      4 C                    -0.174396
      5 C                    -0.100442
      6 C                    -0.174393
      7 C                     0.307048
      8 C                    -0.088972
      9 C                    -0.347763
     10 N                    -0.572229
     11 H                     0.149341
     12 H                     0.142276
     13 H                     0.144809
     14 H                     0.134191
     15 H                     0.139597
     16 H                     0.134187
     17 H                     0.144811
     18 H                     0.142279
     19 H                     0.149341
  ----------------------------------------
  Sum of atomic charges =     0.000000

                    Cartesian Multipole Moments
 -----------------------------------------------------------------
    Charge (ESU x 10^10)
                 0.0000
    Dipole Moment (Debye)
         X       0.0000      Y      -1.7478      Z      -0.0040
       Tot       1.7478
    Quadrupole Moments (Debye-Ang)
        XX     -49.8089     XY       0.0002     YY     -53.6773
        XZ      -0.0036     YZ       0.0484     ZZ     -62.3069

 Total job time:  16.98s(wall), 16.91s(cpu)
        *  Thank you very much for using Q-Chem.  Have a nice day.  *
