 Q-Chem 5.4, Q-Chem, Inc., Pleasanton, CA (2021)
 Q-Chem 5.4.2 for Intel X86 EM64T Linux

User input:
--------------------------------------------------------------
$molecule
0 1
C           -2.21024932880000       -2.66841730620000       -0.53191605630000
C           -1.03572148100000       -2.78115310690000        0.07536304620000
C            0.01753364910000       -1.77002661880000        0.10607927580000
C            1.34289735710000       -2.20167244030000        0.01311497400000
C            2.39127766900000       -1.31459156190000       -0.03816694210000
C            2.14730979330000        0.06045930130000        0.02384341010000
O            3.24085153970000        0.86298771440000       -0.03780539140000
C            3.05881404590000        2.25878882570000        0.00432078730000
C            0.84121863490000        0.50720483250000        0.15897247970000
C           -0.22635059520000       -0.39068576920000        0.19881396540000
C           -1.58056495740000        0.10160949470000        0.42550349160000
C           -2.06533195130000        1.27884864850000        0.06648479820000
F           -1.44612610010000        2.23561314870000       -0.62167569930000
F           -3.30900359330000        1.67851405850000        0.33477204130000
H           -2.92285891410000       -3.47571039050000       -0.52905922180000
H           -2.49318131020000       -1.78502525420000       -1.07888507490000
H           -0.77516487400000       -3.71834743920000        0.55280677620000
H            1.54218455830000       -3.26205964820000       -0.04112016570000
H            3.41108988330000       -1.65408387280000       -0.12281310160000
H            4.05433549900000        2.68774638510000       -0.09746424090000
H            2.62392913750000        2.57834124920000        0.95675654350000
H            2.42765893260000        2.60681279480000       -0.81910300760000
H            0.63571969060000        1.55979499480000        0.25705539650000
H           -2.26431122070000       -0.55552177100000        0.94274953190000
$end

$rem
BASIS = 6-31G*
GUI = 2
METHOD = B3LYP
PRINT_ORBITALS false
MOLDEN_FORMAT false
$end
--------------------------------------------------------------

             Standard Nuclear Orientation (Angstroms)
    I     Atom           X                Y                Z
 ----------------------------------------------------------------
    1      C       2.6159496074     2.2778804037    -0.5185555536
    2      C       1.4681540267     2.5544453054     0.0873240502
    3      C       0.2814736734     1.7036541251     0.1120371535
    4      C      -0.9686310247     2.3201726071     0.0188028245
    5      C      -2.1326269082     1.5917928683    -0.0379434294
    6      C      -2.0872687212     0.1957705413     0.0185789739
    7      O      -3.2838911177    -0.4424421228    -0.0482447874
    8      C      -3.3027448559    -1.8500958003    -0.0117938988
    9      C      -0.8584842030    -0.4331151068     0.1538823315
   10      C       0.3260703787     0.3032745891     0.1992651061
   11      C       1.5957941462    -0.3779210956     0.4260101175
   12      C       1.9086078652    -1.6107901890     0.0627376831
   13      F       1.1608663379    -2.4667648353    -0.6304932154
   14      F       3.0820289678    -2.1847127970     0.3312993967
   15      H       3.4363375714     2.9753407051    -0.5111108973
   16      H       2.7712821471     1.3653767124    -1.0688427028
   17      H       1.3427888886     3.5172905085     0.5683522972
   18      H      -1.0146300603     3.3983469348    -0.0312179470
   19      H      -3.0934529029     2.0735142933    -0.1227657766
   20      H      -4.3490158944    -2.1323656158    -0.1170004031
   21      H      -2.9199309526    -2.2321817174     0.9399604667
   22      H      -2.7258351651    -2.2812295807    -0.8356889638
   23      H      -0.8053215558    -1.5046329644     0.2477936635
   24      H       2.3650852079     0.1729669076     0.9471507794
 ----------------------------------------------------------------

    9    -700.0329950222      4.46e-06  Convergence criterion met
 Total energy in the final basis set =     -700.0329950222

                    Orbital Energies (a.u.)
 --------------------------------------------------------------

 Alpha MOs
 -- Occupied --
-24.7383 -24.7301 -19.1802 -10.3509 -10.2474 -10.2410 -10.2066 -10.1969
-10.1912 -10.1906 -10.1889 -10.1851 -10.1830 -10.1787  -1.2794  -1.2192
 -1.0709  -0.8700  -0.8058  -0.7914  -0.7416  -0.7395  -0.6955  -0.6473
 -0.6115  -0.6051  -0.5758  -0.5553  -0.5390  -0.5168  -0.5118  -0.4917
 -0.4746  -0.4728  -0.4465  -0.4391  -0.4381  -0.4331  -0.4297  -0.4177
 -0.4025  -0.3921  -0.3818  -0.3638  -0.3484  -0.3351  -0.3277  -0.2924
 -0.2702  -0.2334  -0.2051

          Ground-State Mulliken Net Atomic Charges

     Atom                 Charge (a.u.)
  ----------------------------------------
      1 C                    -0.345084
      2 C                    -0.138615
      3 C                     0.097258
      4 C                    -0.190748
      5 C                    -0.168650
      6 C                     0.384318
      7 O                    -0.505272
      8 C                    -0.216587
      9 C                    -0.268966
     10 C                     0.130373
     11 C                    -0.326355
     12 C                     0.546731
     13 F                    -0.241996
     14 F                    -0.250584
     15 H                     0.142443
     16 H                     0.156211
     17 H                     0.133190
     18 H                     0.130677
     19 H                     0.136930
     20 H                     0.170128
     21 H                     0.152953
     22 H                     0.156000
     23 H                     0.137423
     24 H                     0.178222
  ----------------------------------------
  Sum of atomic charges =     0.000000

                    Cartesian Multipole Moments
 -----------------------------------------------------------------
    Charge (ESU x 10^10)
                 0.0000
    Dipole Moment (Debye)
         X      -0.5771      Y      -0.0993      Z       0.3275
       Tot       0.6709
    Quadrupole Moments (Debye-Ang)
        XX     -77.1213     XY       6.9008     YY     -73.0252
        XZ      -0.1068     YZ       0.4026     ZZ     -81.1915

 Total job time:  55.73s(wall), 52.60s(cpu)
        *  Thank you very much for using Q-Chem.  Have a nice day.  *
