 Q-Chem 5.4, Q-Chem, Inc., Pleasanton, CA (2021)
 Q-Chem 5.4.2 for Intel X86 EM64T Linux

User input:
--------------------------------------------------------------
$molecule
0 1
C           -2.21467966200000       -2.66507145580000        0.52619402180000
C           -1.03795858190000       -2.77985171360000       -0.07646630930000
C            0.01626506470000       -1.76968054600000       -0.10525529460000
C            1.34109384500000       -2.20219981780000       -0.00866335210000
C            2.39009439690000       -1.31585251060000        0.04291756900000
C            2.14743674130000        0.05926098980000       -0.02276096430000
O            3.24162311890000        0.86096781420000        0.03809084590000
C            3.06108197710000        2.25674563250000       -0.01072383350000
C            0.84188905910000        0.50681327480000       -0.16050321560000
C           -0.22628670000000       -0.39031350450000       -0.20019800750000
C           -1.57983607240000        0.10333387490000       -0.42868196950000
C           -2.06417337140000        1.27947244260000       -0.06573080700000
F           -1.44489699420000        2.23241284810000        0.62759603370000
F           -3.30687185080000        1.68178292240000       -0.33440454550000
H           -2.92792726670000       -3.47179654210000        0.52211295260000
H           -2.49871426040000       -1.78069362750000        1.07100202660000
H           -0.77639960920000       -3.71810521420000       -0.55128942580000
H            1.53942868040000       -3.26261379570000        0.04808029130000
H            3.40946321830000       -1.65598845370000        0.13032701790000
H            4.05686326860000        2.68513694810000        0.09069443190000
H            2.42896993750000        2.60927794080000        0.81000857780000
H            2.62811171540000        2.57226029070000       -0.96536886960000
H            0.63716454480000        1.55936921700000       -0.26080847980000
H           -2.26277454970000       -0.55144601930000       -0.94984861470000
$end

$rem
BASIS = 6-31G*
GUI = 2
METHOD = B3LYP
PRINT_ORBITALS false
MOLDEN_FORMAT false
$end
--------------------------------------------------------------

             Standard Nuclear Orientation (Angstroms)
    I     Atom           X                Y                Z
 ----------------------------------------------------------------
    1      C       2.6189828482     2.2749435965     0.5127835027
    2      C       1.4692206213     2.5533770754    -0.0885218290
    3      C       0.2820290530     1.7032457793    -0.1112165445
    4      C      -0.9676371188     2.3201272625    -0.0144388839
    5      C      -2.1318792146     1.5921494763     0.0426836464
    6      C      -2.0873304279     0.1962461283    -0.0173396422
    7      O      -3.2842456717    -0.4414891093     0.0487532480
    8      C      -3.3040833323    -1.8489455542     0.0057821219
    9      C      -0.8589765014    -0.4329437664    -0.1551708209
   10      C       0.3258044359     0.3030265833    -0.2004848555
   11      C       1.5949209784    -0.3789885126    -0.4289299698
   12      C       1.9079175805    -1.6105350131    -0.0615821233
   13      F       1.1609664941    -2.4628813073     0.6368952386
   14      F       3.0802071705    -2.1865469375    -0.3304430362
   15      H       3.4396670582     2.9720412335     0.5040383537
   16      H       2.7755883879     1.3614195426     1.0610207382
   17      H       1.3426745891     3.5173219146    -0.5670468214
   18      H      -1.0130737905     3.3981922329     0.0379613174
   19      H      -3.0923431439     2.0741193500     0.1302036263
   20      H      -4.3504304527    -2.1309848337     0.1106473348
   21      H      -2.7267221797    -2.2843834450     0.8270581369
   22      H      -2.9224521752    -2.2267456443    -0.9481490307
   23      H      -0.8061929558    -1.5043186067    -0.2511767229
   24      H       2.3628735198     0.1698870013    -0.9540403488
 ----------------------------------------------------------------

    9    -700.0329860498      4.46e-06  Convergence criterion met
 Total energy in the final basis set =     -700.0329860498

                    Orbital Energies (a.u.)
 --------------------------------------------------------------

 Alpha MOs
 -- Occupied --
-24.7383 -24.7301 -19.1802 -10.3508 -10.2474 -10.2410 -10.2066 -10.1969
-10.1912 -10.1906 -10.1889 -10.1852 -10.1830 -10.1787  -1.2794  -1.2192
 -1.0709  -0.8700  -0.8058  -0.7914  -0.7416  -0.7395  -0.6955  -0.6473
 -0.6114  -0.6050  -0.5758  -0.5553  -0.5390  -0.5168  -0.5118  -0.4917
 -0.4746  -0.4729  -0.4465  -0.4391  -0.4381  -0.4331  -0.4296  -0.4177
 -0.4025  -0.3921  -0.3818  -0.3638  -0.3485  -0.3350  -0.3278  -0.2923
 -0.2702  -0.2334  -0.2051

          Ground-State Mulliken Net Atomic Charges

     Atom                 Charge (a.u.)
  ----------------------------------------
      1 C                    -0.345194
      2 C                    -0.138504
      3 C                     0.097547
      4 C                    -0.190853
      5 C                    -0.168635
      6 C                     0.384228
      7 O                    -0.505260
      8 C                    -0.216590
      9 C                    -0.268604
     10 C                     0.130051
     11 C                    -0.326706
     12 C                     0.546924
     13 F                    -0.242014
     14 F                    -0.250548
     15 H                     0.142425
     16 H                     0.156226
     17 H                     0.133170
     18 H                     0.130683
     19 H                     0.136936
     20 H                     0.170134
     21 H                     0.156009
     22 H                     0.152945
     23 H                     0.137367
     24 H                     0.178266
  ----------------------------------------
  Sum of atomic charges =     0.000000

                    Cartesian Multipole Moments
 -----------------------------------------------------------------
    Charge (ESU x 10^10)
                 0.0000
    Dipole Moment (Debye)
         X      -0.5785      Y      -0.1004      Z      -0.3370
       Tot       0.6770
    Quadrupole Moments (Debye-Ang)
        XX     -77.1102     XY       6.8972     YY     -73.0269
        XZ       0.1126     YZ      -0.3732     ZZ     -81.1958

 Total job time:  49.96s(wall), 49.00s(cpu)
        *  Thank you very much for using Q-Chem.  Have a nice day.  *
