 Q-Chem 5.2, Q-Chem, Inc., Pleasanton, CA (2019)
 Q-Chem 5.2.1 for Intel X86 EM64T Linux

User input:
--------------------------------------------------------------
$molecule
0 1
C        -4.02459502210000    0.30949661120000   -0.02234690210000
C        -3.24073481510000   -0.75726321890000   -0.11637586380000
C        -1.78498117600000   -0.69517994960000   -0.04430282220000
C        -1.01992818990000   -1.86720553320000   -0.07300922570000
C         0.35510572160000   -1.75781180350000   -0.04475746630000
C         0.94578060140000   -0.49856387220000    0.01799968320000
C         2.43556657580000   -0.42879460540000   -0.01439333550000
N         2.94169988520000    0.50007487090000   -0.86491351380000
O         3.14433101190000   -1.16587310640000    0.63587779740000
C         0.09891630910000    0.62103019940000    0.11752723500000
C         0.62038474240000    1.97196816470000    0.32888642640000
C        -0.09895587800000    3.06508272530000    0.10994452710000
N        -1.22038709280000    0.50102120520000    0.06598472010000
H        -5.09717865040000    0.23764545150000   -0.07639976270000
H        -3.59719795870000    1.28736867480000    0.11639581550000
H        -3.65838697940000   -1.74670390870000   -0.24852357870000
H        -1.49995870830000   -2.83256609410000   -0.12005965470000
H         0.98982815670000   -2.63145416810000   -0.07822033650000
H         2.35433141240000    1.07648026750000   -1.44027065150000
H         3.94123087950000    0.56804882400000   -0.96341037710000
H         1.63458866690000    2.03796551210000    0.69838036600000
H        -1.10767107920000    2.99050132290000   -0.25774587730000
H         0.29264160510000    4.05143106450000    0.29005917100000
$end

$rem
BASIS = 6-31G*
GUI = 2
METHOD = B3LYP
PRINT_ORBITALS false
MOLDEN_FORMAT false
--------------------------------------------------------------

             Standard Nuclear Orientation (Angstroms)
    I     Atom           X                Y                Z
 ----------------------------------------------------------------
    1      C       3.9889140946    -0.3442574891    -0.0329849102
    2      C       3.2212279344     0.7347745205    -0.1201782967
    3      C       1.7650842807     0.6950936382    -0.0405629664
    4      C       1.0181800742     1.8789167015    -0.0622691596
    5      C      -0.3582192734     1.7907930551    -0.0270205186
    6      C      -0.9680362896     0.5407004162     0.0356869512
    7      C      -2.4588754429     0.4941341720     0.0109986560
    8      N      -2.9838271573    -0.4245564863    -0.8391702546
    9      O      -3.1526872421     1.2404244700     0.6668646996
   10      C      -0.1381459388    -0.5921509463     0.1279124600
   11      C      -0.6794092727    -1.9353824124     0.3386223383
   12      C       0.0217138196    -3.0389508647     0.1131250954
   13      N       1.1825729290    -0.4924882463     0.0696949868
   14      H       5.0621854562    -0.2889129252    -0.0925290463
   15      H       3.5471204624    -1.3157395680     0.1055521650
   16      H       3.6534922104     1.7179578045    -0.2520397894
   17      H       1.5128871864     2.8368338234    -0.1094254401
   18      H      -0.9794680632     2.6742604488    -0.0549242812
   19      H      -2.4085071588    -1.0085053008    -1.4190766448
   20      H      -3.9847963226    -0.4767606941    -0.9325498542
   21      H      -1.6925619515    -1.9866000975     0.7133080998
   22      H       1.0295212551    -2.9790697351    -0.2597065013
   23      H      -0.3841994568    -4.0195711339     0.2928226739
 ----------------------------------------------------------------

    9    -571.7836586868      4.31e-06  Convergence criterion met
 Total energy in the final basis set =     -571.7836586868

                    Orbital Energies (a.u.)
 --------------------------------------------------------------

 Alpha MOs
 -- Occupied --
-19.1121 -14.3597 -14.3268 -10.2912 -10.2370 -10.2327 -10.2093 -10.2051
-10.1989 -10.1923 -10.1910 -10.1872 -10.1845  -1.0396  -0.9577  -0.9110
 -0.8212  -0.8144  -0.7723  -0.7417  -0.6645  -0.6533  -0.5999  -0.5771
 -0.5744  -0.5523  -0.5110  -0.5016  -0.4840  -0.4557  -0.4482  -0.4359
 -0.4168  -0.4121  -0.4043  -0.4001  -0.3913  -0.3710  -0.3509  -0.3253
 -0.3034  -0.2713  -0.2683  -0.2606  -0.2460  -0.2301

          Ground-State Mulliken Net Atomic Charges

     Atom                 Charge (a.u.)
  ----------------------------------------
      1 C                    -0.329019
      2 C                    -0.108219
      3 C                     0.326929
      4 C                    -0.189107
      5 C                    -0.121387
      6 C                     0.027918
      7 C                     0.492793
      8 N                    -0.740577
      9 O                    -0.493154
     10 C                     0.265015
     11 C                    -0.132572
     12 C                    -0.326223
     13 N                    -0.575665
     14 H                     0.144993
     15 H                     0.170130
     16 H                     0.128556
     17 H                     0.140088
     18 H                     0.164919
     19 H                     0.343962
     20 H                     0.342849
     21 H                     0.153327
     22 H                     0.168959
     23 H                     0.145483
  ----------------------------------------
  Sum of atomic charges =     0.000000

                    Cartesian Multipole Moments
 -----------------------------------------------------------------
    Charge (ESU x 10^10)
                 0.0000
    Dipole Moment (Debye)
         X       0.8390      Y      -1.2740      Z      -2.4370
       Tot       2.8751
    Quadrupole Moments (Debye-Ang)
        XX     -71.7938     XY      10.6566     YY     -68.6108
        XZ       6.7928     YZ      -0.8502     ZZ     -76.7933

 Total job time:  33.00s(wall), 32.71s(cpu)
        *  Thank you very much for using Q-Chem.  Have a nice day.  *
