 Q-Chem 5.2, Q-Chem, Inc., Pleasanton, CA (2019)
 Q-Chem 5.2.1 for Intel X86 EM64T Linux

User input:
--------------------------------------------------------------
$molecule
0 1
C         3.08357947420000   -2.47537117520000   -0.01431983020000
C         2.64686057960000   -1.21817685260000    0.00568725220000
C         1.25664746760000   -0.85339969980000    0.02188328370000
S        -0.00343328600000   -2.04851755120000    0.00046802710000
C        -1.25976825950000   -0.84955675470000   -0.02106818710000
C        -2.65103763360000   -1.21020643310000   -0.00510019380000
C        -3.09145381030000   -2.46614226830000    0.01231045830000
C        -0.71010886600000    0.41670818740000   -0.01023619580000
N        -1.48500277630000    1.61926266330000    0.14195028700000
O        -2.55440915750000    1.67724667250000   -0.41930469910000
O        -1.01951678750000    2.46242618980000    0.87225797910000
C         0.71093409090000    0.41444805190000    0.01093827390000
N         1.49028707490000    1.61428696940000   -0.14189984000000
O         2.55743223600000    1.67050440520000    0.42368213130000
O         1.03081601390000    2.45608297610000   -0.87747922400000
H         4.13458700150000   -2.70053552030000   -0.01987552860000
H         2.40468093430000   -3.31326809510000   -0.02089129910000
H         3.34269002000000   -0.39058888600000    0.03189582440000
H        -3.34441601030000   -0.38047318110000   -0.02894196080000
H        -2.41502757970000   -3.30603542690000    0.01652335100000
H        -4.14312297770000   -2.68821297840000    0.01796544940000
$end

$rem
BASIS = 6-31G*
GUI = 2
METHOD = B3LYP
PRINT_ORBITALS false
MOLDEN_FORMAT false
--------------------------------------------------------------

             Standard Nuclear Orientation (Angstroms)
    I     Atom           X                Y                Z
 ----------------------------------------------------------------
    1      C       3.0845670033    -2.4204260912    -0.0141013426
    2      C       2.6473797474    -1.1633937448     0.0058542171
    3      C       1.2570303420    -0.7991331342     0.0219761933
    4      S      -0.0026049468    -1.9947199624     0.0005315484
    5      C      -1.2593846276    -0.7962269192    -0.0210930894
    6      C      -2.6505205527    -1.1573934878    -0.0051812596
    7      C      -3.0904705252    -2.4134925636     0.0122398520
    8      C      -0.7101966081     0.4702425802    -0.0102667027
    9      N      -1.4855447240     1.6725126083     0.1418537890
   10      O      -2.5549463295     1.7300851093    -0.4194526568
   11      O      -1.0204064471     2.5158672053     0.8721624021
   12      C       0.7108460987     0.4685113487     0.0109742987
   13      N       1.4897600494     1.6686361891    -0.1418570317
   14      O       2.5568577696     1.7252643913     0.4237734690
   15      O       1.0300104370     2.5102431145    -0.8774787279
   16      H       4.1356584384    -2.6451997662    -0.0196023065
   17      H       2.4059803692    -3.2585755473    -0.0206838472
   18      H       3.3429001950    -0.3355464605     0.0320748719
   19      H      -3.3442062805    -0.3279186986    -0.0290759835
   20      H      -2.4137322462    -3.2531340470     0.0165051599
   21      H      -4.1420573119    -2.6359541563     0.0178511387
 ----------------------------------------------------------------

   10   -1116.7793020423      4.24e-06  Convergence criterion met
 Total energy in the final basis set =    -1116.7793020423

                    Orbital Energies (a.u.)
 --------------------------------------------------------------

 Alpha MOs
 -- Occupied --
-88.9543 -19.1932 -19.1931 -19.1931 -19.1931 -14.5900 -14.5900 -10.2789
-10.2784 -10.2769 -10.2769 -10.2282 -10.2281 -10.2193 -10.2193  -8.0159
 -5.9800  -5.9764  -5.9725  -1.2613  -1.2558  -1.0837  -1.0792  -0.9526
 -0.8574  -0.8473  -0.8001  -0.7993  -0.7152  -0.6993  -0.6665  -0.6006
 -0.5901  -0.5900  -0.5632  -0.5502  -0.5454  -0.5401  -0.5225  -0.5210
 -0.5012  -0.4673  -0.4552  -0.4511  -0.4405  -0.4193  -0.3944  -0.3898
 -0.3647  -0.3329  -0.3312  -0.3195  -0.3179  -0.3126  -0.3086  -0.3023
 -0.2870  -0.2464

          Ground-State Mulliken Net Atomic Charges

     Atom                 Charge (a.u.)
  ----------------------------------------
      1 C                    -0.362297
      2 C                    -0.054438
      3 C                    -0.174094
      4 S                     0.326306
      5 C                    -0.174235
      6 C                    -0.054347
      7 C                    -0.362269
      8 C                     0.282052
      9 N                     0.376675
     10 O                    -0.386954
     11 O                    -0.379006
     12 C                     0.281557
     13 N                     0.376784
     14 O                    -0.386652
     15 O                    -0.378781
     16 H                     0.171583
     17 H                     0.166028
     18 H                     0.197156
     19 H                     0.197280
     20 H                     0.166049
     21 H                     0.171602
  ----------------------------------------
  Sum of atomic charges =     0.000000

                    Cartesian Multipole Moments
 -----------------------------------------------------------------
    Charge (ESU x 10^10)
                 0.0000
    Dipole Moment (Debye)
         X      -0.0096      Y      -6.6951      Z       0.0009
       Tot       6.6951
    Quadrupole Moments (Debye-Ang)
        XX     -85.1811     XY      -0.0122     YY     -95.4028
        XZ      -2.1055     YZ       0.0125     ZZ     -94.3935

 Total job time:  43.57s(wall), 43.43s(cpu)
        *  Thank you very much for using Q-Chem.  Have a nice day.  *
