 Q-Chem 5.2, Q-Chem, Inc., Pleasanton, CA (2019)
 Q-Chem 5.2.1 for Intel X86 EM64T Linux

User input:
--------------------------------------------------------------
$molecule
0 1
C        -3.37454920440000    0.72072679240000    0.00070322160000
C        -2.62270977760000   -0.37487064280000    0.00098719070000
C        -1.18657467900000   -0.37392747370000   -0.00011633720000
N        -0.46822354760000   -1.45152215990000   -0.00023790610000
N         0.82646621600000   -1.24963513110000   -0.00062277990000
C         1.17693333010000   -0.00324805200000   -0.00077424310000
C         2.52837875290000    0.48901159380000   -0.00042698290000
C         3.58634427640000   -0.31635881230000    0.00189924200000
S        -0.20444132050000    1.08752753120000   -0.00070834730000
H        -4.44872684900000    0.66609416110000    0.00173757320000
H        -2.93862997280000    1.70687094010000   -0.00066305410000
H        -3.05893522010000   -1.36387638860000    0.00239632520000
H         2.63414436340000    1.56490713850000   -0.00178250620000
H         3.46205327100000   -1.38523243650000    0.00325007500000
H         4.58973397400000    0.07188907450000    0.00247789610000
$end

$rem
BASIS = 6-31G*
GUI = 2
METHOD = B3LYP
PRINT_ORBITALS false
MOLDEN_FORMAT false
--------------------------------------------------------------

             Standard Nuclear Orientation (Angstroms)
    I     Atom           X                Y                Z
 ----------------------------------------------------------------
    1      C       3.4121631930    -0.5135774440     0.0008644415
    2      C       2.5974971435     0.5361442190     0.0008150132
    3      C       1.1638785128     0.4511587018    -0.0002860855
    4      N       0.3836969063     1.4848681045    -0.0007356049
    5      N      -0.8969594364     1.2075608142    -0.0010569064
    6      C      -1.1738864770    -0.0571997692    -0.0008272881
    7      C      -2.4942084153    -0.6277031785    -0.0003277116
    8      C      -3.5974916670     0.1143747711     0.0017541871
    9      S       0.2689537121    -1.0652668968    -0.0004304058
   10      H       4.4813027505    -0.3961765041     0.0018805106
   11      H       3.0347009056    -1.5235422016    -0.0002000852
   12      H       2.9750976536     1.5489836031     0.0019215245
   13      H      -2.5368305864    -1.7079446890    -0.0013545744
   14      H      -3.5359649222     1.1886905132     0.0027784759
   15      H      -4.5764412239    -0.3319266055     0.0024528807
 ----------------------------------------------------------------

    9    -739.8689870008      6.56e-06  Convergence criterion met
 Total energy in the final basis set =     -739.8689870008

                    Orbital Energies (a.u.)
 --------------------------------------------------------------

 Alpha MOs
 -- Occupied --
-88.9209 -14.3634 -14.3606 -10.2621 -10.2600 -10.2123 -10.2123 -10.2027
-10.2003  -7.9834  -5.9466  -5.9439  -5.9407  -1.0523  -0.8592  -0.8333
 -0.7773  -0.7673  -0.6574  -0.6349  -0.5836  -0.5439  -0.5034  -0.4761
 -0.4597  -0.4530  -0.4290  -0.4146  -0.3914  -0.3771  -0.3499  -0.3121
 -0.3100  -0.2830  -0.2542  -0.2350

          Ground-State Mulliken Net Atomic Charges

     Atom                 Charge (a.u.)
  ----------------------------------------
      1 C                    -0.354194
      2 C                    -0.065370
      3 C                     0.091167
      4 N                    -0.273457
      5 N                    -0.284895
      6 C                     0.116472
      7 C                    -0.102296
      8 C                    -0.314612
      9 S                     0.204195
     10 H                     0.160844
     11 H                     0.162022
     12 H                     0.169451
     13 H                     0.149322
     14 H                     0.185285
     15 H                     0.156065
  ----------------------------------------
  Sum of atomic charges =     0.000000

                    Cartesian Multipole Moments
 -----------------------------------------------------------------
    Charge (ESU x 10^10)
                -0.0000
    Dipole Moment (Debye)
         X       0.3137      Y      -2.5702      Z       0.0027
       Tot       2.5893
    Quadrupole Moments (Debye-Ang)
        XX     -45.4894     XY       1.9093     YY     -61.3405
        XZ      -0.0014     YZ       0.0088     ZZ     -61.5159

 Total job time:  13.52s(wall), 13.46s(cpu)
        *  Thank you very much for using Q-Chem.  Have a nice day.  *
