 Q-Chem 5.2, Q-Chem, Inc., Pleasanton, CA (2019)
 Q-Chem 5.2.1 for Intel X86 EM64T Linux

User input:
--------------------------------------------------------------
$molecule
0 1
C        -3.72322134590000    0.79626653130000   -0.00307915210000
C        -2.92322014140000   -0.26296859610000   -0.00161276430000
C        -1.47068142290000   -0.16773195420000    0.00069520500000
C        -0.66847406490000   -1.31785553600000   -0.00040974810000
C         0.70406988700000   -1.17652547480000    0.00044979750000
C         1.60552547860000   -2.36944311130000   -0.00339914290000
C         1.19139568900000    0.15154800610000    0.00387295740000
C         2.61633891170000    0.45930046110000    0.00608625710000
C         3.08713467050000    1.70100699390000   -0.00958625220000
N         0.35886314350000    1.19080527100000    0.00535087750000
N        -0.91981150330000    1.04621008050000    0.00326706300000
H        -4.79542300940000    0.70086543670000   -0.00515736420000
H        -3.30776002730000    1.78903413860000   -0.00212728720000
H        -3.32394877950000   -1.26898342200000   -0.00249880800000
H        -1.12495797700000   -2.29875241870000   -0.00263544770000
H         1.01952873300000   -3.28597540350000   -0.01138798050000
H         2.24083942520000   -2.37118963660000    0.88165160180000
H         2.24802917390000   -2.36003928580000   -0.88313722580000
H         3.29176097780000   -0.38409400630000    0.02106177590000
H         2.41216490450000    2.53885483600000   -0.02495721660000
H         4.14363194980000    1.90771667590000   -0.00736129570000
$end

$rem
BASIS = 6-31G*
GUI = 2
METHOD = B3LYP
PRINT_ORBITALS false
MOLDEN_FORMAT false
--------------------------------------------------------------

             Standard Nuclear Orientation (Angstroms)
    I     Atom           X                Y                Z
 ----------------------------------------------------------------
    1      C       3.7471640743    -0.8000848700    -0.0026809129
    2      C       2.9392275753     0.2531103489    -0.0014250920
    3      C       1.4874453438     0.1469641564     0.0009011830
    4      C       0.6766199277     1.2910281781    -0.0004323775
    5      C      -0.6948234993     1.1393905689     0.0004546553
    6      C      -1.6052158479     2.3255012555    -0.0036314269
    7      C      -1.1721579447    -0.1923059290     0.0041412122
    8      C      -2.5947488606    -0.5107546310     0.0064150092
    9      C      -3.0562025545    -1.7559662222    -0.0090112382
   10      N      -0.3318411190    -1.2252788624     0.0058257472
   11      N       0.9457111240    -1.0710816846     0.0037137589
   12      H       4.8186187486    -0.6966315972    -0.0047776196
   13      H       3.3391729879    -1.7959455477    -0.0015321733
   14      H       3.3323868726     1.2621071997    -0.0025106457
   15      H       1.1257216352     2.2753264100    -0.0028525788
   16      H      -1.0261213899     3.2464085806    -0.0118019378
   17      H      -2.2405266697     2.3226503743     0.8814186926
   18      H      -2.2476290877     2.3110960613    -0.8833678901
   19      H      -3.2764881853     0.3275446486     0.0212228524
   20      H      -2.3749571873    -2.5887225097    -0.0242156280
   21      H      -4.1111170440    -1.9706069252    -0.0067456880
 ----------------------------------------------------------------

    9    -458.4079748289      1.48e-06  Convergence criterion met
 Total energy in the final basis set =     -458.4079748289

                    Orbital Energies (a.u.)
 --------------------------------------------------------------

 Alpha MOs
 -- Occupied --
-14.3528 -14.3515 -10.2270 -10.2266 -10.2194 -10.2072 -10.1992 -10.1915
-10.1913 -10.1824 -10.1820  -1.0243  -0.8520  -0.8393  -0.7823  -0.7427
 -0.7294  -0.6615  -0.6394  -0.5834  -0.5691  -0.5224  -0.4913  -0.4756
 -0.4508  -0.4485  -0.4337  -0.4190  -0.4161  -0.4060  -0.3928  -0.3667
 -0.3647  -0.3373  -0.3103  -0.2979  -0.2737  -0.2247  -0.2130

          Ground-State Mulliken Net Atomic Charges

     Atom                 Charge (a.u.)
  ----------------------------------------
      1 C                    -0.329484
      2 C                    -0.111586
      3 C                     0.337828
      4 C                    -0.221484
      5 C                     0.159512
      6 C                    -0.539163
      7 C                     0.273713
      8 C                    -0.117427
      9 C                    -0.321764
     10 N                    -0.344635
     11 N                    -0.341373
     12 H                     0.143777
     13 H                     0.180365
     14 H                     0.126869
     15 H                     0.136254
     16 H                     0.163615
     17 H                     0.176520
     18 H                     0.176597
     19 H                     0.127261
     20 H                     0.182170
     21 H                     0.142437
  ----------------------------------------
  Sum of atomic charges =     0.000000

                    Cartesian Multipole Moments
 -----------------------------------------------------------------
    Charge (ESU x 10^10)
                 0.0000
    Dipole Moment (Debye)
         X      -0.7784      Y       3.4562      Z      -0.0127
       Tot       3.5428
    Quadrupole Moments (Debye-Ang)
        XX     -55.0872     XY       0.8499     YY     -62.2848
        XZ      -0.0176     YZ       0.0543     ZZ     -66.8882

 Total job time:  25.42s(wall), 23.45s(cpu)
        *  Thank you very much for using Q-Chem.  Have a nice day.  *
