 Q-Chem 5.2, Q-Chem, Inc., Pleasanton, CA (2019)
 Q-Chem 5.2.1 for Intel X86 EM64T Linux

User input:
--------------------------------------------------------------
$molecule
0 1
C        -1.77433300070000   -3.16181918210000    0.28458327720000
C        -0.97903010870000   -2.21813720780000   -0.20091944000000
C        -1.21252843240000   -0.78486135450000   -0.03702904340000
C        -2.51144703220000   -0.27290116800000   -0.06723647380000
N        -2.81180710650000    1.00515429590000    0.03895454090000
C        -1.81757834930000    1.86749323710000    0.17205794720000
C        -0.48620447110000    1.49108102220000    0.20794193340000
C        -0.16019981220000    0.13861539320000    0.10789348320000
C         1.21635688710000   -0.33435498020000    0.20771262820000
C         2.31038811840000    0.35738043850000   -0.07094371980000
F         2.38871460620000    1.59994952230000   -0.52604126750000
F         3.53836319910000   -0.13720492130000    0.05378834020000
H        -1.57241926250000   -4.20686332310000    0.12428179090000
H        -2.64395688880000   -2.92702650380000    0.87501535460000
H        -0.10107089490000   -2.49496808620000   -0.77029427610000
H        -3.35245629630000   -0.93983857150000   -0.20311214890000
H        -2.10513787250000    2.90654676980000    0.25734236830000
H         0.28041156910000    2.23733950200000    0.33545658780000
H         1.37241352760000   -1.34824618500000    0.54318518650000
$end

$rem
BASIS = 6-31G*
GUI = 2
METHOD = B3LYP
PRINT_ORBITALS false
MOLDEN_FORMAT false
--------------------------------------------------------------

             Standard Nuclear Orientation (Angstroms)
    I     Atom           X                Y                Z
 ----------------------------------------------------------------
    1      C      -2.5068749683    -2.5176424314     0.1427640716
    2      C      -1.4604968257    -1.8288150324    -0.2923966390
    3      C      -1.2900462241    -0.3897792365    -0.1032306499
    4      C      -2.3915527083     0.4662844473    -0.1668206247
    5      N      -2.3263503192     1.7758286201    -0.0412770764
    6      C      -1.1367352993     2.3229378610     0.1466680511
    7      C       0.0335991203     1.5877952055     0.2202400705
    8      C      -0.0280693547     0.1995631987     0.0999865802
    9      C       1.1560252144    -0.6417381045     0.2367540869
   10      C       2.4101621290    -0.2811347977     0.0127955211
   11      F       2.8512016109     0.8952646426    -0.4100463842
   12      F       3.4446864688    -1.1018247714     0.1687535968
   13      H      -2.5991463616    -3.5752489630    -0.0348236389
   14      H      -3.2990385885    -2.0558830497     0.7077759466
   15      H      -0.6729441024    -2.3335269155    -0.8370635496
   16      H      -3.3794148474     0.0637784693    -0.3476011917
   17      H      -1.1252837350     3.3997684837     0.2461709520
   18      H       0.9726294172     2.0874032634     0.3919250985
   19      H       1.0085912348    -1.6628771291     0.5536281971
 ----------------------------------------------------------------

    9    -601.5487528074      6.51e-06  Convergence criterion met
 Total energy in the final basis set =     -601.5487528074

                    Orbital Energies (a.u.)
 --------------------------------------------------------------

 Alpha MOs
 -- Occupied --
-24.7552 -24.7466 -14.3242 -10.3716 -10.2243 -10.2192 -10.2189 -10.2135
-10.2067 -10.2014 -10.1970 -10.1918  -1.2979  -1.2367  -0.9489  -0.8516
 -0.8085  -0.7724  -0.7424  -0.6645  -0.6503  -0.6212  -0.5871  -0.5758
 -0.5438  -0.5317  -0.5126  -0.4835  -0.4750  -0.4547  -0.4492  -0.4448
 -0.4369  -0.4284  -0.4087  -0.4009  -0.3809  -0.3615  -0.3254  -0.3045
 -0.2542  -0.2503  -0.2364

          Ground-State Mulliken Net Atomic Charges

     Atom                 Charge (a.u.)
  ----------------------------------------
      1 C                    -0.333304
      2 C                    -0.139157
      3 C                     0.073811
      4 C                    -0.011338
      5 N                    -0.404698
      6 C                     0.038734
      7 C                    -0.201992
      8 C                     0.148730
      9 C                    -0.310244
     10 C                     0.563282
     11 F                    -0.229323
     12 F                    -0.241337
     13 H                     0.149011
     14 H                     0.153544
     15 H                     0.143593
     16 H                     0.141721
     17 H                     0.141561
     18 H                     0.141638
     19 H                     0.175768
  ----------------------------------------
  Sum of atomic charges =     0.000000

                    Cartesian Multipole Moments
 -----------------------------------------------------------------
    Charge (ESU x 10^10)
                 0.0000
    Dipole Moment (Debye)
         X       0.9654      Y      -1.6339      Z       0.2716
       Tot       1.9171
    Quadrupole Moments (Debye-Ang)
        XX     -71.5127     XY       6.6761     YY     -63.5106
        XZ      -0.3681     YZ       1.1052     ZZ     -68.1722

 Total job time:  22.96s(wall), 22.88s(cpu)
        *  Thank you very much for using Q-Chem.  Have a nice day.  *
