 Q-Chem 5.2, Q-Chem, Inc., Pleasanton, CA (2019)
 Q-Chem 5.2.1 for Intel X86 EM64T Linux

User input:
--------------------------------------------------------------
$molecule
0 1
C         1.66601529530000    2.43744137710000   -0.48851851840000
C         0.77917353190000    1.94527402450000    0.36284687350000
C         0.07655919520000    0.67189322830000    0.18800470230000
C        -1.30423721050000    0.65163553230000    0.37236146530000
C        -2.04481666170000   -0.48888343070000    0.09863213420000
C        -3.52387374430000   -0.54291083450000    0.31354202280000
C        -1.33778098280000   -1.58372445850000   -0.39083678060000
N        -0.02970492260000   -1.60265444980000   -0.53094698390000
C         0.68926920630000   -0.52708270580000   -0.22001195110000
C         2.13650490080000   -0.74055690730000   -0.29679206320000
C         3.02733948090000   -0.26028756920000    0.55787276760000
H         2.11628227180000    3.40422075710000   -0.34130193600000
H         1.97616373810000    1.88907711370000   -1.36203952020000
H         0.46063508880000    2.53354157050000    1.21565355660000
H        -1.80473585310000    1.55035981470000    0.70918873030000
H        -3.96294246110000    0.44970355680000    0.24198035320000
H        -3.74028639590000   -0.93896699280000    1.30647019070000
H        -3.99555569070000   -1.19534633640000   -0.41794507560000
H        -1.85021304750000   -2.49453474520000   -0.67533256190000
H         2.43558034030000   -1.43688800930000   -1.06866487870000
H         2.74908884150000    0.39327460800000    1.36768077250000
H         4.07260200280000   -0.50613274920000    0.47895783800000
$end

$rem
BASIS = 6-31G*
GUI = 2
METHOD = B3LYP
PRINT_ORBITALS false
MOLDEN_FORMAT false
--------------------------------------------------------------

             Standard Nuclear Orientation (Angstroms)
    I     Atom           X                Y                Z
 ----------------------------------------------------------------
    1      C       2.3083049715     1.7511594114    -0.7000901300
    2      C       1.3032585017     1.6490125492     0.1560568543
    3      C       0.2666172775     0.6154924847     0.1017743348
    4      C      -1.0643483024     1.0122183354     0.2119366183
    5      C      -2.0974235282     0.1023952463     0.0412125728
    6      C      -3.5327060605     0.4989859950     0.1804781633
    7      C      -1.7277122427    -1.2031483162    -0.2702769417
    8      N      -0.4783979078    -1.6105599090    -0.3357114864
    9      C       0.5146635679    -0.7513117723    -0.1212808117
   10      C       1.8401246072    -1.3744300274    -0.0923974407
   11      C       2.8172143558    -1.0564496075     0.7435935491
   12      H       3.0154698387     2.5613376477    -0.6490556527
   13      H       2.4618137342     1.0256511476    -1.4811196951
   14      H       1.1535556084     2.4120201014     0.9111814818
   15      H      -1.2902650679     2.0525715672     0.4075985760
   16      H      -3.6659722551     1.5564498037    -0.0367685979
   17      H      -3.8705054305     0.3170604285     1.2014560949
   18      H      -4.1601134558    -0.0847885055    -0.4894446760
   19      H      -2.4759938980    -1.9609278728    -0.4676206948
   20      H       1.9387179008    -2.2237133155    -0.7550497059
   21      H       2.7256094120    -0.2486066090     1.4502435096
   22      H       3.7485100805    -1.5966808219     0.7525191547
 ----------------------------------------------------------------

    9    -442.3895128807      2.57e-06  Convergence criterion met
 Total energy in the final basis set =     -442.3895128807

                    Orbital Energies (a.u.)
 --------------------------------------------------------------

 Alpha MOs
 -- Occupied --
-14.3182 -10.2200 -10.2106 -10.1996 -10.1984 -10.1969 -10.1912 -10.1872
-10.1805 -10.1799 -10.1747  -0.9444  -0.8237  -0.8114  -0.7655  -0.7380
 -0.6959  -0.6346  -0.6203  -0.5805  -0.5491  -0.5036  -0.4920  -0.4741
 -0.4442  -0.4343  -0.4277  -0.4174  -0.3997  -0.3963  -0.3856  -0.3760
 -0.3597  -0.3453  -0.3020  -0.2835  -0.2606  -0.2448  -0.2144

          Ground-State Mulliken Net Atomic Charges

     Atom                 Charge (a.u.)
  ----------------------------------------
      1 C                    -0.309024
      2 C                    -0.158410
      3 C                     0.112941
      4 C                    -0.197123
      5 C                     0.156626
      6 C                    -0.532480
      7 C                    -0.006226
      8 N                    -0.471380
      9 C                     0.214479
     10 C                    -0.103694
     11 C                    -0.320905
     12 H                     0.142345
     13 H                     0.152485
     14 H                     0.134181
     15 H                     0.129160
     16 H                     0.159721
     17 H                     0.171294
     18 H                     0.163846
     19 H                     0.130582
     20 H                     0.143079
     21 H                     0.146495
     22 H                     0.142007
  ----------------------------------------
  Sum of atomic charges =     0.000000

                    Cartesian Multipole Moments
 -----------------------------------------------------------------
    Charge (ESU x 10^10)
                 0.0000
    Dipole Moment (Debye)
         X      -0.6213      Y       1.9665      Z       0.4298
       Tot       2.1067
    Quadrupole Moments (Debye-Ang)
        XX     -56.2486     XY      -0.2771     YY     -65.7622
        XZ      -0.5925     YZ       1.6387     ZZ     -65.4008

 Total job time:  25.21s(wall), 25.12s(cpu)
        *  Thank you very much for using Q-Chem.  Have a nice day.  *
