 Q-Chem 5.2, Q-Chem, Inc., Pleasanton, CA (2019)
 Q-Chem 5.2.1 for Intel X86 EM64T Linux

User input:
--------------------------------------------------------------
$molecule
0 1
C         3.90089881460000   -0.18851772320000    2.68959901810000
C         2.61110984250000    0.01235189520000    2.43096305740000
C         1.91855349570000   -0.48193258040000    1.27252960450000
S         2.70874851430000   -1.56034514440000    0.16289042690000
C         1.27859010310000   -1.67270747890000   -0.81842570370000
C         1.26182339480000   -2.49912902730000   -1.99392282390000
C         2.27959594990000   -3.24683240210000   -2.41355435470000
C         0.25822966480000   -0.89847387890000   -0.30813638460000
C        -1.11017165610000   -0.84319778560000   -0.91549287920000
C        -1.98213509380000   -1.97733229900000   -0.36243410780000
C        -3.41434931460000   -1.95015092010000   -0.89690647400000
C        -4.25521179380000   -0.76317703500000   -0.42271174300000
C        -4.52429255370000   -0.76788671890000    1.08078433110000
C        -5.45415926670000    0.36894837510000    1.48754033630000
C         0.61985260390000   -0.22565391100000    0.88633984640000
C        -0.27445270550000    0.71441714760000    1.63903114000000
C         0.10911655840000    2.18129606140000    1.39579447810000
C        -0.03899114720000    2.58905563750000   -0.06747816310000
C         0.44980940720000    4.01532153020000   -0.30693671990000
C         0.27125951130000    4.47909299910000   -1.75299704910000
C         1.17143503220000    3.73770569400000   -2.73478127060000
H         4.36602511900000    0.19906575740000    3.57866569320000
H         4.52940990420000   -0.74646377630000    2.01542774150000
H         2.00797232620000    0.58218324630000    3.12533943540000
H         0.33592695630000   -2.49485382190000   -2.55341773170000
H         3.21309745720000   -3.27907989040000   -1.87660637100000
H         2.20970694770000   -3.84845555710000   -3.30241378480000
H        -1.04650975560000   -0.93177757880000   -2.00153665060000
H        -1.56808454170000    0.11925243860000   -0.69329506690000
H        -1.99010955700000   -1.92662325020000    0.72752764560000
H        -1.52328365380000   -2.93078820570000   -0.63601929070000
H        -3.91466711240000   -2.87280886450000   -0.59216078740000
H        -3.38033160800000   -1.94066617300000   -1.98954998330000
H        -5.21426770890000   -0.79514817260000   -0.94629714370000
H        -3.76946489570000    0.17417710130000   -0.70099417180000
H        -3.58570771880000   -0.67016193780000    1.62928084660000
H        -4.97373178880000   -1.72313434230000    1.36201987790000
H        -5.01778612820000    1.33139978890000    1.22768829000000
H        -5.63314196390000    0.35256578390000    2.56021956680000
H        -6.41177728410000    0.28074350580000    0.97875786170000
H        -0.20589232460000    0.50289969680000    2.70913740530000
H        -1.31198202410000    0.56150200960000    1.34232267710000
H         1.14643916500000    2.33549668660000    1.70065055740000
H        -0.52145060440000    2.82093291950000    2.01858846070000
H        -1.08872800820000    2.51702933530000   -0.36406807630000
H         0.53500165480000    1.89688851420000   -0.68514657040000
H         1.50641174330000    4.08293990140000   -0.03693291740000
H        -0.10237635010000    4.69213952670000    0.35069653000000
H         0.49756835400000    5.54684366400000   -1.80608301980000
H        -0.77279436120000    4.34894136860000   -2.04775040110000
H         2.21349182090000    3.82522589370000   -2.43473669410000
H         1.06621987390000    4.15628889780000   -3.73327954510000
H         0.91553225680000    2.68241785400000   -2.78226376500000
$end

$rem
BASIS = 6-31G*
GUI = 2
METHOD = B3LYP
PRINT_ORBITALS false
MOLDEN_FORMAT false
--------------------------------------------------------------

             Standard Nuclear Orientation (Angstroms)
    I     Atom           X                Y                Z
 ----------------------------------------------------------------
    1      C      -3.9358248334    -0.4470207630    -2.7429994652
    2      C      -2.6598175966    -0.1845110373    -2.4715387280
    3      C      -1.9581232060    -0.6386432915    -1.3022191057
    4      S      -2.7096785111    -1.7458166016    -0.1940617094
    5      C      -1.2870376704    -1.7851083843     0.8036902225
    6      C      -1.2450582316    -2.6024666146     1.9848804815
    7      C      -2.2315397094    -3.3942492912     2.3983371527
    8      C      -0.2981821627    -0.9672718618     0.2994318680
    9      C       1.0591886324    -0.8443380822     0.9214377711
   10      C       1.9892992768    -1.9399485726     0.3857259285
   11      C       3.4125447951    -1.8425541829     0.9357474184
   12      C       4.2024523285    -0.6205938869     0.4628029401
   13      C       4.4884642975    -0.6221463093    -1.0375709549
   14      C       5.3688482478     0.5543104730    -1.4417616553
   15      C      -0.6772424052    -0.3195709662    -0.9034929876
   16      C       0.1807136789     0.6565128452    -1.6526468543
   17      C      -0.2735754709     2.1053695870    -1.4236081857
   18      C      -0.1612205368     2.5287582238     0.0384072102
   19      C      -0.7186829673     3.9321082613     0.2627843257
   20      C      -0.5783381714     4.4127606548     1.7075442127
   21      C      -1.4540169819     3.6363004428     2.6843592014
   22      H      -4.4084248009    -0.0871611397    -3.6397454206
   23      H      -4.5452244253    -1.0294811689    -2.0720233769
   24      H      -2.0760878666     0.4085097703    -3.1630783947
   25      H      -0.3267621900    -2.5514453331     2.5544998745
   26      H      -3.1563828286    -3.4734257863     1.8513687904
   27      H      -2.1437375554    -3.9863728274     3.2919738123
   28      H       0.9874355324    -0.9289912301     2.0072902602
   29      H       1.4742055347     0.1370394186     0.6977735489
   30      H       2.0072395637    -1.8957496802    -0.7044007740
   31      H       1.5723436763    -2.9120637547     0.6607018589
   32      H       3.9587645267    -2.7427267419     0.6427988165
   33      H       3.3657537657    -1.8278257902     2.0278603600
   34      H       5.1559665374    -0.6044547602     0.9971270512
   35      H       3.6704009496     0.2947733778     0.7293513168
   36      H       3.5526131818    -0.5718046994    -1.5970246743
   37      H       4.9851177438    -1.5571015343    -1.3073507955
   38      H       4.8851519842     1.4969378540    -1.1932684539
   39      H       5.5605329031     0.5395879604    -2.5122681556
   40      H       6.3237162708     0.5141184762    -0.9218735572
   41      H       0.1342114727     0.4353261461    -2.7219838292
   42      H       1.2208196655     0.5540867823    -1.3434956347
   43      H      -1.3134426906     2.2090383365    -1.7409127838
   44      H       0.3334865057     2.7698478398    -2.0437428565
   45      H       0.8873080097     2.5077005729     0.3470255905
   46      H      -0.7092655527     1.8144184446     0.6543963862
   47      H      -1.7741645049     3.9486087113    -0.0192958987
   48      H      -0.1912516067     4.6298471090    -0.3933024541
   49      H      -0.8547819399     5.4690870314     1.7508884624
   50      H       0.4672454076     4.3333653124     2.0146579262
   51      H      -2.4955577529     3.6731718616     2.3722659384
   52      H      -1.3797480655     4.0655864352     3.6810931664
   53      H      -1.1497331533     2.5944351652     2.7418164731
 ----------------------------------------------------------------

    9   -1179.5655193222      1.68e-06  Convergence criterion met
 Total energy in the final basis set =    -1179.5655193222

                    Orbital Energies (a.u.)
 --------------------------------------------------------------

 Alpha MOs
 -- Occupied --
-88.8920 -10.2088 -10.2087 -10.1938 -10.1933 -10.1888 -10.1883 -10.1864
-10.1849 -10.1784 -10.1782 -10.1780 -10.1771 -10.1770 -10.1760 -10.1755
-10.1725 -10.1716 -10.1711 -10.1701 -10.1645  -7.9541  -5.9182  -5.9146
 -5.9107  -0.8881  -0.8164  -0.8144  -0.8015  -0.7874  -0.7716  -0.7638
 -0.7366  -0.7242  -0.6879  -0.6857  -0.6457  -0.6405  -0.6247  -0.6021
 -0.5922  -0.5649  -0.5627  -0.5572  -0.5298  -0.5122  -0.4914  -0.4843
 -0.4731  -0.4560  -0.4537  -0.4462  -0.4397  -0.4327  -0.4247  -0.4211
 -0.4173  -0.4165  -0.4080  -0.4014  -0.3970  -0.3839  -0.3789  -0.3754
 -0.3692  -0.3652  -0.3601  -0.3548  -0.3516  -0.3482  -0.3407  -0.3370
 -0.3300  -0.3235  -0.3219  -0.3197  -0.3165  -0.3128  -0.3107  -0.3101
 -0.3038  -0.2632  -0.2337  -0.1910

          Ground-State Mulliken Net Atomic Charges

     Atom                 Charge (a.u.)
  ----------------------------------------
      1 C                    -0.377842
      2 C                    -0.054934
      3 C                    -0.203251
      4 S                     0.231008
      5 C                    -0.205113
      6 C                    -0.052123
      7 C                    -0.378501
      8 C                     0.112997
      9 C                    -0.359625
     10 C                    -0.259592
     11 C                    -0.255063
     12 C                    -0.253958
     13 C                    -0.256372
     14 C                    -0.441598
     15 C                     0.117141
     16 C                    -0.360692
     17 C                    -0.254703
     18 C                    -0.263012
     19 C                    -0.250318
     20 C                    -0.249512
     21 C                    -0.444922
     22 H                     0.143778
     23 H                     0.157630
     24 H                     0.138007
     25 H                     0.135365
     26 H                     0.157247
     27 H                     0.143314
     28 H                     0.144460
     29 H                     0.152958
     30 H                     0.143777
     31 H                     0.141116
     32 H                     0.130086
     33 H                     0.125382
     34 H                     0.129900
     35 H                     0.130350
     36 H                     0.138379
     37 H                     0.132612
     38 H                     0.140880
     39 H                     0.142368
     40 H                     0.143205
     41 H                     0.146696
     42 H                     0.147370
     43 H                     0.142411
     44 H                     0.128710
     45 H                     0.123745
     46 H                     0.154287
     47 H                     0.130319
     48 H                     0.125013
     49 H                     0.129100
     50 H                     0.127260
     51 H                     0.143513
     52 H                     0.140967
     53 H                     0.149782
  ----------------------------------------
  Sum of atomic charges =     0.000000

                    Cartesian Multipole Moments
 -----------------------------------------------------------------
    Charge (ESU x 10^10)
                 0.0000
    Dipole Moment (Debye)
         X       1.4349      Y       0.6426      Z      -0.0987
       Tot       1.5753
    Quadrupole Moments (Debye-Ang)
        XX    -138.5763     XY      -1.6216     YY    -141.1326
        XZ       2.0142     YZ      -4.3803     ZZ    -136.0061

 Total job time:  143.05s(wall), 142.68s(cpu)
        *  Thank you very much for using Q-Chem.  Have a nice day.  *
