 Q-Chem 5.2, Q-Chem, Inc., Pleasanton, CA (2019)
 Q-Chem 5.2.1 for Intel X86 EM64T Linux

User input:
--------------------------------------------------------------
$molecule
0 1
C         0.50232736830000    3.05832077130000   -4.32376202840000
C        -0.12136153090000    3.73007139300000   -3.36352523480000
C        -0.70916881650000    3.18426915790000   -2.14490984290000
C        -1.39448847880000    4.04274631790000   -1.29266485640000
C        -1.98536041000000    3.58514212420000   -0.11476544340000
C        -2.69519640020000    4.53884986420000    0.73124979030000
C        -3.36415913380000    4.26816666110000    1.84501245480000
C        -1.87015557450000    2.23780131410000    0.20348555190000
C        -1.18360143890000    1.36207630180000   -0.63554257140000
O        -1.13876574300000    0.06871247930000   -0.21321967340000
C        -0.44942283060000   -0.88477999600000   -0.99225005110000
C        -0.54332353250000   -2.23265742310000   -0.28091335060000
C         0.09438486950000   -2.22511336300000    1.10927389470000
C         1.60267878080000   -1.97022505090000    1.13373850160000
C         2.43850794580000   -2.95618359250000    0.31281028910000
C         2.22246346390000   -4.41835385400000    0.72549454470000
C         2.41336790500000   -4.62720393150000    2.21642902790000
O         1.55382899790000   -5.00931023450000    2.95485287370000
O         3.64845385090000   -4.35742337390000    2.67770081120000
C        -0.60605584090000    1.83352568490000   -1.80562841860000
H         0.89985589530000    3.56035036650000   -5.18915469620000
H         0.64230199500000    1.99114660650000   -4.29800308770000
H        -0.22912981150000    4.80310596390000   -3.46695542480000
H        -1.47576354330000    5.08920697710000   -1.55152353480000
H        -2.65565031670000    5.56319336910000    0.38037208460000
H        -3.44920970470000    3.27322526900000    2.24628853780000
H        -3.86033897900000    5.04443287020000    2.40208784710000
H        -2.30199916450000    1.83304275170000    1.10364768230000
H         0.60028243090000   -0.58626013850000   -1.11760708050000
H        -0.90845950340000   -0.96290580570000   -1.98884988880000
H        -0.08620065580000   -2.99098470630000   -0.91781559210000
H        -1.60017091710000   -2.48030039720000   -0.16956002830000
H        -0.11606782910000   -3.17677981240000    1.59894670080000
H        -0.38792821840000   -1.44184655090000    1.69562953750000
H         1.92739934770000   -2.01343594130000    2.17626685580000
H         1.81037413280000   -0.96022608220000    0.77456488730000
H         3.49369150550000   -2.68576996690000    0.42455013330000
H         2.19800594520000   -2.85786770320000   -0.74722293980000
H         2.92746915410000   -5.06050720360000    0.18926458380000
H         1.21186006040000   -4.73642270280000    0.47257178180000
H         4.24095965150000   -4.04950189520000    1.97957933950000
H        -0.07240909700000    1.16591009530000   -2.46105083690000
$end

$rem
BASIS = 6-31G*
GUI = 2
METHOD = B3LYP
PRINT_ORBITALS false
MOLDEN_FORMAT false
--------------------------------------------------------------

             Standard Nuclear Orientation (Angstroms)
    I     Atom           X                Y                Z
 ----------------------------------------------------------------
    1      C       3.7703823346    -3.7225626777     0.2655367967
    2      C       4.3002193642    -2.5293983101     0.5062086784
    3      C       3.6923766325    -1.2276219758     0.2525424664
    4      C       4.4412525895    -0.0825343009     0.4993756257
    5      C       3.9229219078     1.1925635232     0.2725781222
    6      C       4.7653234760     2.3519900960     0.5469081832
    7      C       4.4591985760     3.6251230738     0.3308809288
    8      C       2.6227533536     1.3034048114    -0.2040339296
    9      C       1.8544611844     0.1677681835    -0.4535848504
   10      O       0.5967478253     0.4077931213    -0.9158639680
   11      C      -0.2580731712    -0.6835064246    -1.1796370633
   12      C      -1.5961079230    -0.1290898872    -1.6632444534
   13      C      -2.2885865531     0.7594313336    -0.6286658517
   14      C      -2.6987416755     0.0551841051     0.6660641233
   15      C      -3.6284540194    -1.1474040487     0.4814985280
   16      C      -4.9202419710    -0.8002146002    -0.2706110128
   17      C      -5.6456817677     0.3791417938     0.3505202866
   18      O      -5.8508672934     1.4127400894    -0.2148606462
   19      O      -6.0678575180     0.1892403355     1.6141244862
   20      C       2.3876674919    -1.0928713401    -0.2268617734
   21      H       4.3081368370    -4.6280295106     0.4889579759
   22      H       2.7915933990    -3.8547429485    -0.1629695774
   23      H       5.2951628702    -2.4799006591     0.9320635824
   24      H       5.4513673675    -0.1827863856     0.8712775182
   25      H       5.7357007669     2.1105855364     0.9641016935
   26      H       3.5168742654     3.9349976984    -0.0864523658
   27      H       5.1526052808     4.4146449971     0.5653141457
   28      H       2.1714269451     2.2637043531    -0.3904192947
   29      H      -0.3951684401    -1.2871891708    -0.2721781632
   30      H       0.1769040194    -1.3253537649    -1.9599295605
   31      H      -2.2330282041    -0.9669584632    -1.9495569803
   32      H      -1.4081446295     0.4700687112    -2.5556186874
   33      H      -3.1700477938     1.2112787850    -1.0853920149
   34      H      -1.6040899942     1.5679987726    -0.3686102598
   35      H      -3.1966992225     0.7935027396     1.2993885837
   36      H      -1.8072152204    -0.2776894298     1.2014301202
   37      H      -3.8663070852    -1.5508285674     1.4712945894
   38      H      -3.1125001602    -1.9381132985    -0.0659940932
   39      H      -5.5913613892    -1.6642345795    -0.2684383524
   40      H      -4.6971706014    -0.5448375049    -1.3057335461
   41      H      -5.8289365835    -0.6833660711     1.9528385193
   42      H       1.8026944855    -1.9773597397    -0.4154216367
 ----------------------------------------------------------------

    9    -886.6923560911      2.52e-06  Convergence criterion met
 Total energy in the final basis set =     -886.6923560911

                    Orbital Energies (a.u.)
 --------------------------------------------------------------

 Alpha MOs
 -- Occupied --
-19.1976 -19.1782 -19.1324 -10.3170 -10.2473 -10.2441 -10.2070 -10.2060
-10.1966 -10.1952 -10.1913 -10.1894 -10.1889 -10.1875 -10.1848 -10.1812
-10.1812 -10.1811 -10.1788 -10.1785  -1.1063  -1.0701  -1.0226  -0.8662
 -0.8295  -0.8053  -0.7964  -0.7699  -0.7424  -0.7240  -0.7190  -0.6804
 -0.6463  -0.6325  -0.6195  -0.5998  -0.5875  -0.5628  -0.5374  -0.5310
 -0.5170  -0.5007  -0.4957  -0.4892  -0.4861  -0.4654  -0.4562  -0.4537
 -0.4457  -0.4343  -0.4268  -0.4204  -0.4191  -0.4062  -0.4030  -0.3913
 -0.3835  -0.3814  -0.3724  -0.3663  -0.3622  -0.3587  -0.3477  -0.3428
 -0.3369  -0.3319  -0.3215  -0.3190  -0.3169  -0.3135  -0.2680  -0.2616
 -0.2204  -0.2161

          Ground-State Mulliken Net Atomic Charges

     Atom                 Charge (a.u.)
  ----------------------------------------
      1 C                    -0.356953
      2 C                    -0.108840
      3 C                     0.185427
      4 C                    -0.287223
      5 C                     0.191571
      6 C                    -0.113491
      7 C                    -0.351117
      8 C                    -0.249160
      9 C                     0.398287
     10 O                    -0.521877
     11 C                    -0.034862
     12 C                    -0.288556
     13 C                    -0.274084
     14 C                    -0.279021
     15 C                    -0.282502
     16 C                    -0.385173
     17 C                     0.599898
     18 O                    -0.438311
     19 O                    -0.561094
     20 C                    -0.265621
     21 H                     0.144405
     22 H                     0.138930
     23 H                     0.127788
     24 H                     0.123178
     25 H                     0.126640
     26 H                     0.145803
     27 H                     0.144377
     28 H                     0.133811
     29 H                     0.135837
     30 H                     0.138659
     31 H                     0.133656
     32 H                     0.155175
     33 H                     0.160770
     34 H                     0.159881
     35 H                     0.154878
     36 H                     0.143733
     37 H                     0.123068
     38 H                     0.149571
     39 H                     0.158648
     40 H                     0.182139
     41 H                     0.412889
     42 H                     0.128863
  ----------------------------------------
  Sum of atomic charges =     0.000000

                    Cartesian Multipole Moments
 -----------------------------------------------------------------
    Charge (ESU x 10^10)
                 0.0000
    Dipole Moment (Debye)
         X       0.9414      Y      -4.4065      Z       0.6149
       Tot       4.5477
    Quadrupole Moments (Debye-Ang)
        XX    -130.5554     XY      23.0184     YY    -115.5679
        XZ       0.3089     YZ      -1.2028     ZZ    -120.0421

 Total job time:  78.30s(wall), 77.85s(cpu)
        *  Thank you very much for using Q-Chem.  Have a nice day.  *
