 Q-Chem 5.2, Q-Chem, Inc., Pleasanton, CA (2019)
 Q-Chem 5.2.1 for Intel X86 EM64T Linux

User input:
--------------------------------------------------------------
$molecule
0 1
C        -1.74935138030000    0.33493133970000    3.38300194120000
C        -1.81651221320000   -0.62754413960000    2.46612786160000
C        -1.61883427220000   -0.44209465850000    1.05321539380000
C        -1.20180782920000    0.66204125470000    0.35862498400000
C        -1.12511534060000    0.47857130260000   -1.03821939990000
C        -0.55150913170000    1.52763064600000   -1.94157811690000
C         0.88366406580000    1.87153183160000   -1.52318186190000
C         1.81367797000000    0.67329150000000   -1.70171315660000
C         3.19142677090000    0.87082580340000   -1.06882887420000
C         3.18136373810000    0.98035832310000    0.45802673490000
C         2.58942728250000   -0.24778172910000    1.14836191760000
C         2.81152345740000   -0.24818365330000    2.66117338230000
C         2.01163543410000    0.83183932730000    3.37974033200000
C        -1.50983516650000   -0.78626593640000   -1.42001992530000
C        -1.62710135800000   -1.39542647710000   -2.72514901340000
C        -2.02000061900000   -0.78328179180000   -3.83729132690000
S        -1.91893093110000   -1.76269303750000   -0.03601066930000
H        -1.90007465590000    0.12421200490000    4.42686124130000
H        -1.55184657410000    1.36123378910000    3.12495542230000
H        -2.03772624380000   -1.64324337560000    2.76755527290000
H        -0.95136141270000    1.59081604300000    0.83923234490000
H        -1.17027959030000    2.42789673650000   -1.89286237640000
H        -0.54187334690000    1.17052567200000   -2.97062076460000
H         0.88569638490000    2.18771152040000   -0.48063892200000
H         1.24470290850000    2.70799970680000   -2.12587360250000
H         1.94210943590000    0.48344611530000   -2.77063320240000
H         1.34569287640000   -0.21345573740000   -1.27255237870000
H         3.64698213640000    1.77481237770000   -1.48182652290000
H         3.82340697460000    0.02524993090000   -1.35220998200000
H         2.63109614480000    1.87254369730000    0.75778071010000
H         4.21387823070000    1.10864031410000    0.79412286270000
H         3.05190043460000   -1.14329908380000    0.72528915050000
H         1.51630299190000   -0.30231180340000    0.95630925130000
H         3.87555826990000   -0.11578196220000    2.87196474440000
H         2.51512136650000   -1.22286613600000    3.05636711020000
H         2.32236545790000    1.82410825230000    3.06263632450000
H         2.15912804160000    0.75943281220000    4.45512997810000
H         0.94999296480000    0.71374560160000    3.17198411440000
H        -1.41646227780000   -2.45800799040000   -2.74848470460000
H        -2.30891807070000    0.25325325770000   -3.85494471180000
H        -2.08722240420000   -1.31531676740000   -4.77048848630000
$end

$rem
BASIS = 6-31G*
GUI = 2
METHOD = B3LYP
PRINT_ORBITALS false
MOLDEN_FORMAT false
--------------------------------------------------------------

             Standard Nuclear Orientation (Angstroms)
    I     Atom           X                Y                Z
 ----------------------------------------------------------------
    1      C       1.1483397488     3.4899711402    -1.1185300805
    2      C       0.2661499348     3.1520055759    -0.1809544233
    3      C      -0.5457213664     1.9643882796    -0.1957823645
    4      C      -0.5183031551     0.8880269028    -1.0420550361
    5      C      -1.4773991804    -0.1058664388    -0.7539091812
    6      C      -1.4992952722    -1.4158346885    -1.4813088694
    7      C      -0.1514636826    -2.1338504286    -1.3369171753
    8      C       0.1181316909    -2.5163920223     0.1168914232
    9      C       1.5462400993    -3.0029882259     0.3648522725
   10      C       2.6266879876    -1.9379691508     0.1605157390
   11      C       2.4508407118    -0.7174278371     1.0630876512
   12      C       3.6585073464     0.2201444002     1.0424721338
   13      C       3.8308310588     0.9383595651    -0.2905996814
   14      C      -2.2662325833     0.2272558679     0.3232935008
   15      C      -3.3815041161    -0.4560755475     0.9376366015
   16      C      -4.3021054187    -1.1720966829     0.3006448858
   17      S      -1.7812509016     1.7542893099     1.0082843654
   18      H       1.7298852108     4.3913151413    -1.0401320603
   19      H       1.3135752981     2.8878296933    -1.9954655189
   20      H       0.1170529203     3.7972762308     0.6751033621
   21      H       0.1785986084     0.8068529433    -1.8569588160
   22      H      -1.7064996707    -1.2405890205    -2.5405937370
   23      H      -2.2833610754    -2.0549784664    -1.0772276536
   24      H       0.6416764051    -1.4809180985    -1.6995156876
   25      H      -0.1530578503    -3.0327468268    -1.9576003555
   26      H      -0.5779984993    -3.3075692092     0.4076961567
   27      H      -0.0850380648    -1.6585826487     0.7590711589
   28      H       1.7556663659    -3.8462003605    -0.2987917663
   29      H       1.6100043320    -3.3697028160     1.3925472264
   30      H       2.6399871201    -1.6251289360    -0.8838001830
   31      H       3.5965130565    -2.3956549967     0.3737434485
   32      H       2.2905422032    -1.0611176184     2.0882730186
   33      H       1.5686532824    -0.1518876090     0.7575339101
   34      H       4.5634228561    -0.3483215658     1.2707431442
   35      H       3.5315442294     0.9688261543     1.8282165084
   36      H       4.0256948263     0.2312395147    -1.0929182374
   37      H       4.6674467732     1.6319729759    -0.2412615978
   38      H       2.9325974185     1.5033957297    -0.5316473254
   39      H      -3.4700731227    -0.3057786189     2.0070098822
   40      H      -4.3012120502    -1.2941271366    -0.7686060740
   41      H      -5.1078289694    -1.6439376698     0.8360069733
 ----------------------------------------------------------------

    9   -1022.3039156595      3.37e-06  Convergence criterion met
 Total energy in the final basis set =    -1022.3039156595

                    Orbital Energies (a.u.)
 --------------------------------------------------------------

 Alpha MOs
 -- Occupied --
-88.9018 -10.2176 -10.2143 -10.1998 -10.1986 -10.1932 -10.1854 -10.1835
-10.1834 -10.1830 -10.1757 -10.1683 -10.1671 -10.1666 -10.1665 -10.1633
-10.1594  -7.9637  -5.9277  -5.9241  -5.9206  -0.8903  -0.8152  -0.8052
 -0.7890  -0.7717  -0.7573  -0.7238  -0.7037  -0.6844  -0.6468  -0.6181
 -0.6135  -0.5880  -0.5717  -0.5442  -0.5411  -0.5117  -0.4905  -0.4735
 -0.4630  -0.4577  -0.4451  -0.4411  -0.4318  -0.4249  -0.4199  -0.4051
 -0.3968  -0.3888  -0.3858  -0.3718  -0.3660  -0.3646  -0.3596  -0.3537
 -0.3411  -0.3392  -0.3275  -0.3246  -0.3199  -0.3086  -0.3043  -0.3008
 -0.2971  -0.2702  -0.2446  -0.2002

          Ground-State Mulliken Net Atomic Charges

     Atom                 Charge (a.u.)
  ----------------------------------------
      1 C                    -0.341238
      2 C                    -0.088444
      3 C                    -0.127945
      4 C                    -0.161032
      5 C                     0.172489
      6 C                    -0.342006
      7 C                    -0.264728
      8 C                    -0.261424
      9 C                    -0.258112
     10 C                    -0.257299
     11 C                    -0.262438
     12 C                    -0.248227
     13 C                    -0.457689
     14 C                    -0.205948
     15 C                    -0.101627
     16 C                    -0.335238
     17 S                     0.223514
     18 H                     0.148469
     19 H                     0.145872
     20 H                     0.138439
     21 H                     0.138541
     22 H                     0.142607
     23 H                     0.147970
     24 H                     0.138725
     25 H                     0.130981
     26 H                     0.126700
     27 H                     0.153550
     28 H                     0.122089
     29 H                     0.126162
     30 H                     0.132717
     31 H                     0.124974
     32 H                     0.122991
     33 H                     0.150673
     34 H                     0.125639
     35 H                     0.127790
     36 H                     0.140771
     37 H                     0.137297
     38 H                     0.155189
     39 H                     0.141884
     40 H                     0.152389
     41 H                     0.144972
  ----------------------------------------
  Sum of atomic charges =     0.000000

                    Cartesian Multipole Moments
 -----------------------------------------------------------------
    Charge (ESU x 10^10)
                -0.0000
    Dipole Moment (Debye)
         X      -0.0980      Y      -0.4263      Z      -0.5102
       Tot       0.6721
    Quadrupole Moments (Debye-Ang)
        XX    -112.9237     XY       5.3287     YY    -111.1000
        XZ      -1.9834     YZ       1.2480     ZZ    -110.2814

 Total job time:  98.25s(wall), 97.98s(cpu)
        *  Thank you very much for using Q-Chem.  Have a nice day.  *
