 Q-Chem 5.2, Q-Chem, Inc., Pleasanton, CA (2019)
 Q-Chem 5.2.1 for Intel X86 EM64T Linux

User input:
--------------------------------------------------------------
$molecule
0 1
C         3.92037203440000   -0.91648769910000    0.42615674640000
C         3.08673044320000   -0.08397946070000   -0.18250560270000
C         1.62601351510000   -0.15431841340000   -0.09649475470000
C         1.00330310660000   -1.39009451180000   -0.03659610140000
C        -0.38263192210000   -1.44062037770000   -0.01218710740000
N        -1.23413585160000   -2.51987392640000    0.00134597420000
C        -2.42482668330000   -2.01817983380000   -0.03668772820000
N        -2.44281809890000   -0.65154776480000   -0.06567456710000
C        -1.13419928720000   -0.24550114800000   -0.04835505870000
C        -0.53979302690000    1.01579065910000   -0.09744038050000
C        -1.33338905090000    2.24069507550000   -0.16767973170000
C        -2.47410717030000    2.45192984050000    0.47815331550000
C         0.86293833850000    1.04321306290000   -0.10818351940000
N         1.51902623530000    2.26277183220000   -0.13986300550000
H         4.98757498880000   -0.83869025510000    0.30522802810000
H         3.56821629700000   -1.70146276580000    1.07389099500000
H         3.48664215740000    0.70153580180000   -0.81301045710000
H         1.58106399420000   -2.29925653950000   -0.04295980320000
H        -3.32690757330000   -2.59940633100000   -0.03896259900000
H        -3.24817444640000   -0.05491626520000   -0.14770386180000
H        -0.94298345430000    3.01623934050000   -0.81683080900000
H        -2.88293266180000    1.73478257810000    1.17119148810000
H        -3.02547915370000    3.37013064730000    0.36599140360000
H         0.98324355120000    3.05462158970000    0.17483437010000
H         2.46712994000000    2.25626021680000    0.19762934350000
$end

$rem
BASIS = 6-31G*
GUI = 2
METHOD = B3LYP
PRINT_ORBITALS false
MOLDEN_FORMAT false
--------------------------------------------------------------

             Standard Nuclear Orientation (Angstroms)
    I     Atom           X                Y                Z
 ----------------------------------------------------------------
    1      C       3.9338017760    -0.8087788116     0.4178018944
    2      C       3.0705629742    -0.0061756986    -0.1897712608
    3      C       1.6133507133    -0.1294669461    -0.1039163070
    4      C       1.0357877948    -1.3870566694    -0.0457112390
    5      C      -0.3474093263    -1.4877573419    -0.0214282293
    6      N      -1.1592827059    -2.5971476849    -0.0093870164
    7      C      -2.3673561085    -2.1388381792    -0.0467933349
    8      N      -2.4348121665    -0.7737154539    -0.0739367502
    9      C      -1.1417512082    -0.3205828290    -0.0560147756
   10      C      -0.5933975517     0.9614665593    -0.1033732708
   11      C      -1.4308191000     2.1569311398    -0.1719927458
   12      C      -2.5784321246     2.3258579103     0.4740771967
   13      C       0.8074214090     1.0396685647    -0.1140209137
   14      N       1.4189272547     2.2822218736    -0.1440273324
   15      H       4.9974877583    -0.6922332195     0.2970227604
   16      H       3.6103000282    -1.6068621389     1.0644616174
   17      H       3.4417699598     0.7941531199    -0.8191988853
   18      H       1.6460843130    -2.2746965972    -0.0532776797
   19      H      -3.2478034975    -2.7523381005    -0.0498901259
   20      H      -3.2612410274    -0.2065211991    -0.1551944461
   21      H      -1.0687511540     2.9469765292    -0.8200804275
   22      H      -2.9610217236     1.5934450837     1.1661299673
   23      H      -3.1626851209     3.2236460552     0.3631314290
   24      H       0.8548306981     3.0537300177     0.1717159489
   25      H       2.3666476013     2.3095831155     0.1934954502
 ----------------------------------------------------------------

    9    -590.0103782054      2.74e-06  Convergence criterion met
 Total energy in the final basis set =     -590.0103782054

                    Orbital Energies (a.u.)
 --------------------------------------------------------------

 Alpha MOs
 -- Occupied --
-14.3836 -14.3415 -14.3037 -10.2392 -10.2264 -10.2164 -10.2005 -10.1906
-10.1882 -10.1879 -10.1856 -10.1824 -10.1787 -10.1743  -1.0156  -0.9266
 -0.8764  -0.8351  -0.8035  -0.7682  -0.7185  -0.7152  -0.6481  -0.6145
 -0.6058  -0.5915  -0.5616  -0.5363  -0.5189  -0.5032  -0.4775  -0.4665
 -0.4457  -0.4408  -0.4366  -0.4246  -0.4079  -0.4044  -0.3834  -0.3757
 -0.3481  -0.3404  -0.3136  -0.2974  -0.2815  -0.2666  -0.2592  -0.2071
 -0.1857

          Ground-State Mulliken Net Atomic Charges

     Atom                 Charge (a.u.)
  ----------------------------------------
      1 C                    -0.337343
      2 C                    -0.159948
      3 C                     0.142022
      4 C                    -0.262531
      5 C                     0.247251
      6 N                    -0.496843
      7 C                     0.218518
      8 N                    -0.691151
      9 C                     0.242666
     10 C                     0.138386
     11 C                    -0.147011
     12 C                    -0.363214
     13 C                     0.153152
     14 N                    -0.814756
     15 H                     0.138553
     16 H                     0.146511
     17 H                     0.136342
     18 H                     0.140441
     19 H                     0.153242
     20 H                     0.329141
     21 H                     0.143076
     22 H                     0.142049
     23 H                     0.145110
     24 H                     0.326534
     25 H                     0.329801
  ----------------------------------------
  Sum of atomic charges =     0.000000

                    Cartesian Multipole Moments
 -----------------------------------------------------------------
    Charge (ESU x 10^10)
                 0.0000
    Dipole Moment (Debye)
         X      -1.5381      Y       3.4253      Z       0.6266
       Tot       3.8067
    Quadrupole Moments (Debye-Ang)
        XX     -63.3696     XY       1.4552     YY     -81.3391
        XZ       1.3721     YZ       0.7630     ZZ     -84.5915

 Total job time:  40.18s(wall), 40.05s(cpu)
        *  Thank you very much for using Q-Chem.  Have a nice day.  *
