 Q-Chem 5.2, Q-Chem, Inc., Pleasanton, CA (2019)
 Q-Chem 5.2.1 for Intel X86 EM64T Linux

User input:
--------------------------------------------------------------
$molecule
0 1
C        -2.68061344070000   -2.48131288060000    0.16036128390000
C        -1.49961664990000   -1.87416533110000    0.14361165490000
C        -1.35708635000000   -0.42865578890000   -0.00585238450000
N        -2.47622049080000    0.28462515150000    0.08677983100000
C        -2.42472242440000    1.59729617650000    0.02393464340000
C        -1.23891814360000    2.30384717290000   -0.12562891560000
C        -0.06692553470000    1.58201776860000   -0.25263681440000
C        -0.10239238260000    0.18832481640000   -0.20540843220000
C         1.10981348050000   -0.60129985530000   -0.39607333770000
C         2.32785540050000   -0.24626156970000   -0.01919196170000
F         2.67860641680000    0.85695780060000    0.63107971540000
F         3.41027443890000   -0.99231854030000   -0.22689157650000
H        -2.77065877700000   -3.54667613150000    0.28421115980000
H        -3.58752431340000   -1.91259584530000    0.05079236610000
H        -0.58963855230000   -2.44403225030000    0.26348493280000
H        -3.37700076070000    2.10593944350000    0.10094726620000
H        -1.23429918920000    3.38170025710000   -0.15743174840000
H         0.87040822880000    2.09395611330000   -0.40923909480000
H         1.02626143990000   -1.55639996630000   -0.89114379140000
$end

$rem
BASIS = 6-31G*
GUI = 2
METHOD = B3LYP
PRINT_ORBITALS false
MOLDEN_FORMAT false
--------------------------------------------------------------

             Standard Nuclear Orientation (Angstroms)
    I     Atom           X                Y                Z
 ----------------------------------------------------------------
    1      C       2.6360440447     2.4238114611     0.1398663259
    2      C       1.4439475323     1.8385684427     0.1322092230
    3      C       1.2740068085     0.3950420123    -0.0074468451
    4      N       2.3801569332    -0.3382687447     0.0847425664
    5      C       2.3040851152    -1.6501272894     0.0304560545
    6      C       1.1047372861    -2.3354971873    -0.1093589980
    7      C      -0.0542600099    -1.5928749548    -0.2357427717
    8      C       0.0072120671    -0.1998105905    -0.1975155157
    9      C      -1.1910261897     0.6109408249    -0.3878060968
   10      C      -2.4137022166     0.2809101721    -0.0032791455
   11      F      -2.7818484756    -0.8115242875     0.6555287109
   12      F      -3.4830612172     1.0455895967    -0.2109033575
   13      H       2.7463563709     3.4880769602     0.2565537234
   14      H       3.5317645168     1.8377050655     0.0298850824
   15      H       0.5452285989     2.4259458802     0.2525008312
   16      H       3.2471263732    -2.1758441968     0.1064683287
   17      H       1.0800237902    -3.4132574208    -0.1343018959
   18      H      -1.0016123271    -2.0883196451    -0.3849334990
   19      H      -1.0920652467     1.5612094394    -0.8892921003
 ----------------------------------------------------------------

    9    -601.5504495946      5.33e-06  Convergence criterion met
 Total energy in the final basis set =     -601.5504495946

                    Orbital Energies (a.u.)
 --------------------------------------------------------------

 Alpha MOs
 -- Occupied --
-24.7484 -24.7406 -14.3243 -10.3638 -10.2293 -10.2204 -10.2142 -10.2091
-10.2065 -10.1967 -10.1880 -10.1810  -1.2907  -1.2302  -0.9518  -0.8383
 -0.8060  -0.7759  -0.7363  -0.6585  -0.6461  -0.6205  -0.5806  -0.5704
 -0.5321  -0.5260  -0.5172  -0.4864  -0.4675  -0.4487  -0.4450  -0.4399
 -0.4320  -0.4169  -0.4070  -0.3972  -0.3862  -0.3536  -0.3128  -0.3078
 -0.2601  -0.2528  -0.2237

          Ground-State Mulliken Net Atomic Charges

     Atom                 Charge (a.u.)
  ----------------------------------------
      1 C                    -0.323140
      2 C                    -0.101800
      3 C                     0.244630
      4 N                    -0.488918
      5 C                     0.043017
      6 C                    -0.150101
      7 C                    -0.145349
      8 C                     0.124665
      9 C                    -0.325000
     10 C                     0.558701
     11 F                    -0.235028
     12 F                    -0.244407
     13 H                     0.141853
     14 H                     0.173258
     15 H                     0.128691
     16 H                     0.139509
     17 H                     0.137928
     18 H                     0.146431
     19 H                     0.175060
  ----------------------------------------
  Sum of atomic charges =     0.000000

                    Cartesian Multipole Moments
 -----------------------------------------------------------------
    Charge (ESU x 10^10)
                 0.0000
    Dipole Moment (Debye)
         X      -0.5242      Y      -0.4711      Z      -0.5022
       Tot       0.8654
    Quadrupole Moments (Debye-Ang)
        XX     -70.9656     XY      -0.7510     YY     -58.4404
        XZ       0.4071     YZ       0.3397     ZZ     -68.8555

 Total job time:  22.98s(wall), 22.89s(cpu)
        *  Thank you very much for using Q-Chem.  Have a nice day.  *
