 Q-Chem 5.2, Q-Chem, Inc., Pleasanton, CA (2019)
 Q-Chem 5.2.1 for Intel X86 EM64T Linux

User input:
--------------------------------------------------------------
$molecule
0 1
C        -1.06949662080000   -3.21205182450000    0.85528823700000
C        -1.23765804570000   -2.38595187700000   -0.16472024600000
C        -0.82783307420000   -0.96514783090000   -0.12882070070000
C        -1.70790333440000    0.09973633980000   -0.07660220300000
O        -3.07220859710000    0.07363347870000   -0.06644331650000
C        -3.79892449250000   -1.08856338160000   -0.37920294260000
C        -1.21237033270000    1.41545811000000    0.02932817080000
C         0.12294478770000    1.73442101470000    0.07577870960000
C         0.47891663540000    3.14010867140000    0.20732623090000
C         1.69344039860000    3.66506211680000    0.32495910710000
C         1.05807297470000    0.65797937800000   -0.01475742710000
N         2.37461214060000    0.92247092440000   -0.00510471020000
C         3.23613229250000   -0.05104325820000   -0.09743446520000
C         2.86725412740000   -1.39675427650000   -0.22190010770000
C         1.53317306840000   -1.70104217770000   -0.23334881110000
C         0.56765066870000   -0.67669975560000   -0.11757635370000
H        -1.35130217480000   -4.25036076940000    0.80019614420000
H        -0.65175170960000   -2.87507829790000    1.79003496710000
H        -1.65172848070000   -2.75227264610000   -1.09683191180000
H        -4.84660832220000   -0.80294157480000   -0.28390947820000
H        -3.58354496560000   -1.90763915570000    0.31084000540000
H        -3.61216761280000   -1.41249868740000   -1.40697171210000
H        -1.95864432590000    2.19434294280000    0.08709495320000
H        -0.38165792820000    3.80042144040000    0.21349042330000
H         2.57401110150000    3.05013645540000    0.32678443000000
H         1.82544248440000    4.73053711270000    0.42004619720000
H         4.27960943160000    0.23883510110000   -0.08085842610000
H         3.61933157520000   -2.16543343720000   -0.31227693540000
H         1.20829194030000   -2.72610244390000   -0.33693573620000
$end

$rem
BASIS = 6-31G*
GUI = 2
METHOD = B3LYP
PRINT_ORBITALS false
MOLDEN_FORMAT false
--------------------------------------------------------------

             Standard Nuclear Orientation (Angstroms)
    I     Atom           X                Y                Z
 ----------------------------------------------------------------
    1      C      -2.6648915134    -2.0178800752     0.9136486490
    2      C      -2.3505468022    -1.2495400537    -0.1168743770
    3      C      -1.2035286350    -0.3156310919    -0.1072412391
    4      C      -1.3187391271     1.0612677397    -0.0613622514
    5      O      -2.4542515603     1.8176104087    -0.0354645085
    6      C      -3.7191929191     1.2751222541    -0.3222851482
    7      C      -0.1599382681     1.8604124366     0.0189265954
    8      C       1.1196683476     1.3615510527     0.0454913621
    9      C       2.2155445650     2.3143241703     0.1515913031
   10      C       3.5145836925     2.0539939754     0.2475450410
   11      C       1.2728373433    -0.0564632847    -0.0391414507
   12      N       2.5053170321    -0.5895990804    -0.0483266839
   13      C       2.6566391048    -1.8811002227    -0.1354934739
   14      C       1.5844665100    -2.7771968658    -0.2352816239
   15      C       0.3148641894    -2.2667683307    -0.2270883381
   16      C       0.1074873947    -0.8740774269    -0.1160879989
   17      H      -3.4891047266    -2.7106318481     0.8775580074
   18      H      -2.1129094005    -1.9734529285     1.8383947729
   19      H      -2.9161874489    -1.3201570060    -1.0385800205
   20      H      -4.4154186036     2.1076024783    -0.2195790603
   21      H      -3.9966586184     0.4836202338     0.3776934743
   22      H      -3.7687953996     0.8962406739    -1.3470335076
   23      H      -0.3281174152     2.9261013826     0.0732064430
   24      H       1.8849668263     3.3474381493     0.1573701094
   25      H       3.8875973991     1.0468193296     0.2488378043
   26      H       4.2319271291     2.8547052663     0.3248942153
   27      H       3.6793814871    -2.2376764562    -0.1350726453
   28      H       1.7626448257    -3.8380085112    -0.3223864536
   29      H      -0.5380560910    -2.9243761346    -0.3113825800
 ----------------------------------------------------------------

    9    -671.2301927762      3.54e-06  Convergence criterion met
 Total energy in the final basis set =     -671.2301927762

                    Orbital Energies (a.u.)
 --------------------------------------------------------------

 Alpha MOs
 -- Occupied --
-19.1791 -14.3176 -10.2516 -10.2381 -10.2161 -10.2142 -10.2015 -10.2010
-10.1978 -10.1964 -10.1940 -10.1899 -10.1886 -10.1847 -10.1763 -10.1599
 -1.0683  -0.9449  -0.8575  -0.8209  -0.7852  -0.7710  -0.7552  -0.7171
 -0.7034  -0.6379  -0.6266  -0.6209  -0.5732  -0.5578  -0.5372  -0.5231
 -0.4993  -0.4770  -0.4759  -0.4672  -0.4603  -0.4409  -0.4349  -0.4288
 -0.4108  -0.4053  -0.3958  -0.3868  -0.3691  -0.3648  -0.3540  -0.3461
 -0.3349  -0.3223  -0.3018  -0.2748  -0.2608  -0.2389  -0.2287  -0.2033

          Ground-State Mulliken Net Atomic Charges

     Atom                 Charge (a.u.)
  ----------------------------------------
      1 C                    -0.305829
      2 C                    -0.183292
      3 C                     0.017628
      4 C                     0.327924
      5 O                    -0.513486
      6 C                    -0.217947
      7 C                    -0.301431
      8 C                     0.211414
      9 C                    -0.126618
     10 C                    -0.342028
     11 C                     0.185334
     12 N                    -0.517726
     13 C                     0.046992
     14 C                    -0.158981
     15 C                    -0.150593
     16 C                     0.114885
     17 H                     0.144629
     18 H                     0.155789
     19 H                     0.147933
     20 H                     0.164952
     21 H                     0.168093
     22 H                     0.145964
     23 H                     0.142108
     24 H                     0.119735
     25 H                     0.186416
     26 H                     0.127341
     27 H                     0.133049
     28 H                     0.132761
     29 H                     0.144983
  ----------------------------------------
  Sum of atomic charges =     0.000000

                    Cartesian Multipole Moments
 -----------------------------------------------------------------
    Charge (ESU x 10^10)
                 0.0000
    Dipole Moment (Debye)
         X      -2.9049      Y      -1.7877      Z      -0.3708
       Tot       3.4310
    Quadrupole Moments (Debye-Ang)
        XX     -84.0436     XY      -0.7722     YY     -85.2925
        XZ       1.7188     YZ      -0.2862     ZZ     -94.4956

 Total job time:  56.07s(wall), 55.91s(cpu)
        *  Thank you very much for using Q-Chem.  Have a nice day.  *
