 Q-Chem 5.2, Q-Chem, Inc., Pleasanton, CA (2019)
 Q-Chem 5.2.1 for Intel X86 EM64T Linux

User input:
--------------------------------------------------------------
$molecule
0 1
C         0.01812530330000    5.17260612370000   -0.25988347220000
O        -1.35815774330000    4.91708804300000   -0.13649307920000
C        -1.77850523820000    3.62122568280000   -0.06600634810000
C        -3.16714399220000    3.45433289750000    0.05448332000000
C        -3.73453117040000    2.20301199850000    0.11609736710000
C        -0.93315291100000    2.52155731280000   -0.10881695250000
C        -1.51076780040000    1.26253659490000   -0.01842229340000
C        -2.90672114270000    1.08689328950000    0.07547094970000
C        -3.14243160160000   -0.32889748090000    0.09206213940000
C        -4.28427471580000   -1.11551256110000    0.19170938910000
C        -4.14992373930000   -2.48426743980000    0.20473655890000
C        -2.88754464450000   -3.09444343240000    0.13825334460000
O        -2.90396511720000   -4.45822861290000    0.18207524950000
C        -1.68103599720000   -5.14782882670000    0.13011881560000
C        -1.73431760230000   -2.32923769370000    0.03794775860000
C        -1.87961479800000   -0.94925290640000   -0.00258436380000
N        -0.89737617270000    0.02306100740000   -0.06758800230000
C         0.47562871340000   -0.20634636380000   -0.16722527960000
C         1.36591235810000    0.44572082060000    0.68492884210000
C         2.72351402290000    0.22573618600000    0.58508941770000
C         3.23482632610000   -0.66111654990000   -0.36576933400000
C         4.65093657030000   -0.94231876120000   -0.52367473540000
C         5.67481297430000   -0.42397387490000    0.13942793260000
F         5.64765803930000    0.48154469550000    1.11060531990000
F         6.94082775850000   -0.76294412470000   -0.09794052830000
C         2.33436278060000   -1.31511607170000   -1.21161571110000
C         0.97772679960000   -1.09110487160000   -1.12069915270000
H         0.11529714040000    6.25663333350000   -0.29337960500000
H         0.42720888120000    4.74517531040000   -1.18156410320000
H         0.57872660720000    4.78678344950000    0.59826359190000
H        -3.77458395600000    4.34448779020000    0.08544249270000
H        -4.80464420150000    2.08828044570000    0.19107473140000
H         0.13349837370000    2.62653109780000   -0.22363740370000
H        -5.25912958740000   -0.65872979010000    0.26182617690000
H        -5.01100252970000   -3.12874694690000    0.27890918960000
H        -1.93587805440000   -6.20532474080000    0.17995166940000
H        -1.03652322070000   -4.89176433460000    0.97783762410000
H        -1.14556032240000   -4.94985956680000   -0.80473296430000
H        -0.75387295770000   -2.77637690690000    0.00891329170000
H         0.98099295770000    1.11216340410000    1.44177976310000
H         3.38579530900000    0.74046862500000    1.26142719470000
H         4.91688697400000   -1.66619587180000   -1.28062575430000
H         2.71049356800000   -1.99968936490000   -1.95783329500000
H         0.29738493390000   -1.58242346600000   -1.79964377150000
$end

$rem
BASIS = 6-31G*
GUI = 2
METHOD = B3LYP
PRINT_ORBITALS false
MOLDEN_FORMAT false
--------------------------------------------------------------

             Standard Nuclear Orientation (Angstroms)
    I     Atom           X                Y                Z
 ----------------------------------------------------------------
    1      C       0.1331303617    -5.1734209600     0.2581525465
    2      O      -1.2462818739    -4.9326269847     0.1402125254
    3      C      -1.6805911712    -3.6413773349     0.0697183513
    4      C      -3.0714096585    -3.4893299974    -0.0451471940
    5      C      -3.6522412167    -2.2441595591    -0.1060879341
    6      C      -0.8467335535    -2.5327830957     0.1074558006
    7      C      -1.4379943889    -1.2800620920     0.0177672597
    8      C      -2.8361077625    -1.1193042723    -0.0704833131
    9      C      -3.0868328683     0.2938933055    -0.0880252873
   10      C      -4.2373325495     1.0682636661    -0.1839397510
   11      C      -4.1175081629     2.4383412239    -0.1994126939
   12      C      -2.8613790133     3.0619085772    -0.1390881225
   13      O      -2.8923931397     4.4253807915    -0.1847132779
   14      C      -1.6766116709     5.1279306380    -0.1388581635
   15      C      -1.6997196009     2.3090674995    -0.0425927056
   16      C      -1.8302553277     0.9276840646     0.0004464723
   17      N      -0.8375330847    -0.0341092554     0.0626453050
   18      C       0.5333773974     0.2099263952     0.1561803124
   19      C       1.4269150078    -0.4339097858    -0.6988218742
   20      C       2.7825236803    -0.1994587207    -0.6050068678
   21      C       3.2884250193     0.6940916085     0.3424698110
   22      C       4.7021354732     0.9904569952     0.4940195817
   23      C       5.7286381370     0.4820143940    -0.1726796479
   24      F       5.7069747734    -0.4251164226    -1.1424895106
   25      F       6.9919861271     0.8346720678     0.0588856156
   26      C       2.3846612581     1.3397435664     1.1912045623
   27      C       1.0300982264     1.1012890132     1.1063137942
   28      H       0.2418911554    -6.2563129254     0.2927275305
   29      H       0.5415416141    -4.7403874563     1.1775131357
   30      H       0.6860147258    -4.7829164145    -0.6028784758
   31      H      -3.6695343847    -4.3858933043    -0.0723236850
   32      H      -4.7238122706    -2.1408420785    -0.1767123510
   33      H       0.2214401937    -2.6263234342     0.2179241015
   34      H      -5.2075921804     0.6011121632    -0.2493202263
   35      H      -4.9856527879     3.0735852958    -0.2708408180
   36      H      -1.9428207508     6.1826045275    -0.1890688039
   37      H      -1.0329948480     4.8774854161    -0.9889331588
   38      H      -1.1351527766     4.9369530499     0.7939996516
   39      H      -0.7239411854     2.7665767806    -0.0183044611
   40      H       1.0458841429    -1.1054526118    -1.4531279734
   41      H       3.4473608493    -0.7081265810    -1.2834221690
   42      H       4.9635985606     1.7181748205     1.2488482736
   43      H       2.7566678415     2.0293081826     1.9348895679
   44      H       0.3474599996     1.5863573196     1.7874441784
 ----------------------------------------------------------------

    9   -1253.4307399432      4.81e-06  Convergence criterion met
 Total energy in the final basis set =    -1253.4307399432

                    Orbital Energies (a.u.)
 --------------------------------------------------------------

 Alpha MOs
 -- Occupied --
-24.7512 -24.7403 -19.1730 -19.1727 -14.3819 -10.3636 -10.2404 -10.2402
-10.2391 -10.2373 -10.2368 -10.2193 -10.2192 -10.2151 -10.2103 -10.2027
-10.2006 -10.2003 -10.1996 -10.1826 -10.1825 -10.1810 -10.1808 -10.1759
-10.1755 -10.1713 -10.1712  -1.2918  -1.2309  -1.0630  -1.0627  -1.0006
 -0.8826  -0.8498  -0.8445  -0.8146  -0.7827  -0.7676  -0.7542  -0.7520
 -0.7362  -0.7256  -0.7067  -0.6742  -0.6581  -0.6342  -0.6311  -0.6088
 -0.6066  -0.5817  -0.5783  -0.5731  -0.5487  -0.5400  -0.5356  -0.5254
 -0.5116  -0.4980  -0.4897  -0.4751  -0.4705  -0.4683  -0.4674  -0.4637
 -0.4599  -0.4554  -0.4473  -0.4424  -0.4394  -0.4366  -0.4345  -0.4206
 -0.4169  -0.4136  -0.4120  -0.4012  -0.3886  -0.3856  -0.3707  -0.3677
 -0.3624  -0.3519  -0.3456  -0.3449  -0.3287  -0.3249  -0.3210  -0.3034
 -0.2981  -0.2683  -0.2510  -0.2424  -0.2353  -0.1945  -0.1841

          Ground-State Mulliken Net Atomic Charges

     Atom                 Charge (a.u.)
  ----------------------------------------
      1 C                    -0.210080
      2 O                    -0.509384
      3 C                     0.380770
      4 C                    -0.192685
      5 C                    -0.195875
      6 C                    -0.269852
      7 C                     0.313317
      8 C                     0.058347
      9 C                     0.058923
     10 C                    -0.195760
     11 C                    -0.192740
     12 C                     0.380068
     13 O                    -0.509244
     14 C                    -0.209602
     15 C                    -0.269632
     16 C                     0.313725
     17 N                    -0.742515
     18 C                     0.289335
     19 C                    -0.162198
     20 C                    -0.209337
     21 C                     0.203889
     22 C                    -0.300163
     23 C                     0.544871
     24 F                    -0.234241
     25 F                    -0.246470
     26 C                    -0.209404
     27 C                    -0.162059
     28 H                     0.167956
     29 H                     0.150202
     30 H                     0.146035
     31 H                     0.129783
     32 H                     0.129998
     33 H                     0.140587
     34 H                     0.130054
     35 H                     0.129797
     36 H                     0.167824
     37 H                     0.150243
     38 H                     0.144972
     39 H                     0.139797
     40 H                     0.155294
     41 H                     0.144789
     42 H                     0.161271
     43 H                     0.134515
     44 H                     0.154878
  ----------------------------------------
  Sum of atomic charges =     0.000000

                    Cartesian Multipole Moments
 -----------------------------------------------------------------
    Charge (ESU x 10^10)
                 0.0000
    Dipole Moment (Debye)
         X       2.6890      Y       0.9491      Z       0.6933
       Tot       2.9347
    Quadrupole Moments (Debye-Ang)
        XX    -157.1136     XY       0.4028     YY    -141.2560
        XZ       2.7979     YZ       3.1914     ZZ    -153.3538

 Total job time:  159.79s(wall), 158.89s(cpu)
        *  Thank you very much for using Q-Chem.  Have a nice day.  *
