 Q-Chem 5.2, Q-Chem, Inc., Pleasanton, CA (2019)
 Q-Chem 5.2.1 for Intel X86 EM64T Linux

User input:
--------------------------------------------------------------
$molecule
0 1
C        -4.11072499800000    1.08594919830000   -0.08735456580000
C        -3.57545583640000   -0.12882742760000   -0.04914386150000
C        -2.15658237390000   -0.45337889710000    0.00388943860000
C        -1.76269297560000   -1.79139493500000    0.08073913680000
C        -0.43224668730000   -2.14386920630000    0.13783568750000
C         0.57814722990000   -1.18148316380000    0.11948526180000
C         1.98470529350000   -1.56878224520000    0.19036026580000
C         2.47414132210000   -2.69142095620000   -0.31973334510000
C         0.18078499440000    0.16201282180000    0.04211337010000
C         1.21945844550000    1.24826463690000   -0.00143073040000
F         1.91250548640000    1.35421188480000    1.15182292760000
F         2.13628944220000    1.05902311330000   -0.96883210060000
F         0.69945161950000    2.46494476870000   -0.22316179990000
C        -1.15547833210000    0.51676346900000   -0.01683186170000
H        -5.17758520810000    1.22284938790000   -0.12459358350000
H        -3.52175984990000    1.98665678590000   -0.08213075680000
H        -4.23034986690000   -0.99142297210000   -0.05363975720000
H        -2.51849012180000   -2.56350688000000    0.10212225060000
H        -0.15770095890000   -3.18407081910000    0.21970816920000
H         2.65204311030000   -0.87677363170000    0.68432065490000
H         1.86050624460000   -3.39553379570000   -0.85635129370000
H         3.51948635640000   -2.93300285750000   -0.23987951670000
H        -1.41855452890000    1.56008290150000   -0.08319100960000
$end

$rem
BASIS = 6-31G*
GUI = 2
METHOD = B3LYP
PRINT_ORBITALS false
MOLDEN_FORMAT false
--------------------------------------------------------------

             Standard Nuclear Orientation (Angstroms)
    I     Atom           X                Y                Z
 ----------------------------------------------------------------
    1      C       4.1165311800    -0.8605851713    -0.0873602851
    2      C       3.4954594622     0.3125078634    -0.0451935031
    3      C       2.0569400205     0.5342179549     0.0082344032
    4      C       1.5680295850     1.8402413750     0.0895428521
    5      C       0.2157045173     2.0961332423     0.1471771947
    6      C      -0.7230188115     1.0637942067     0.1249481947
    7      C      -2.1537621425     1.3489108048     0.1964427902
    8      C      -2.7223604246     2.4353195369    -0.3099886995
    9      C      -0.2302511116    -0.2474439594     0.0431002575
   10      C      -1.1882857259    -1.4052694542    -0.0047686670
   11      F      -1.8722517052    -1.5647272082     1.1477489180
   12      F      -2.1160742528    -1.2789082621    -0.9719801953
   13      F      -0.5822513150    -2.5807114384    -0.2304692293
   14      C       1.1280398445    -0.5051824019    -0.0163876704
   15      H       5.1904748244    -0.9204443705    -0.1245226193
   16      H       3.5937177844    -1.8012468435    -0.0855815302
   17      H       4.0867664924     1.2198843853    -0.0463429761
   18      H       2.2664657694     2.6645178536     0.1140092099
   19      H      -0.1328001225     3.1136581204     0.2325323002
   20      H      -2.7698531031     0.6090675962     0.6876418372
   21      H      -2.1606909412     3.1835319473    -0.8438307195
   22      H      -3.7823677145     2.6009840952    -0.2298357888
   23      H       1.4653241077    -1.5266945897    -0.0862463573
 ----------------------------------------------------------------

    9    -724.0808215174      3.74e-06  Convergence criterion met
 Total energy in the final basis set =     -724.0808215174

                    Orbital Energies (a.u.)
 --------------------------------------------------------------

 Alpha MOs
 -- Occupied --
-24.7232 -24.7184 -24.7173 -10.4285 -10.2155 -10.2139 -10.2081 -10.2045
-10.2018 -10.1999 -10.1991 -10.1966 -10.1888 -10.1879  -1.3041  -1.2132
 -1.2091  -0.8866  -0.8225  -0.7886  -0.7747  -0.7286  -0.6964  -0.6522
 -0.6276  -0.5898  -0.5820  -0.5778  -0.5748  -0.5372  -0.5047  -0.4930
 -0.4639  -0.4580  -0.4561  -0.4507  -0.4473  -0.4217  -0.4132  -0.4103
 -0.4088  -0.3934  -0.3909  -0.3880  -0.3657  -0.3580  -0.3465  -0.3241
 -0.2780  -0.2706  -0.2245

          Ground-State Mulliken Net Atomic Charges

     Atom                 Charge (a.u.)
  ----------------------------------------
      1 C                    -0.348879
      2 C                    -0.116934
      3 C                     0.182993
      4 C                    -0.185446
      5 C                    -0.192839
      6 C                     0.118527
      7 C                    -0.119698
      8 C                    -0.338152
      9 C                    -0.057027
     10 C                     0.789053
     11 F                    -0.269816
     12 F                    -0.266374
     13 F                    -0.266983
     14 C                    -0.238825
     15 H                     0.149619
     16 H                     0.149478
     17 H                     0.130880
     18 H                     0.135846
     19 H                     0.139199
     20 H                     0.155718
     21 H                     0.146623
     22 H                     0.150367
     23 H                     0.152670
  ----------------------------------------
  Sum of atomic charges =     0.000000

                    Cartesian Multipole Moments
 -----------------------------------------------------------------
    Charge (ESU x 10^10)
                 0.0000
    Dipole Moment (Debye)
         X       1.5237      Y       1.9246      Z       0.0337
       Tot       2.4550
    Quadrupole Moments (Debye-Ang)
        XX     -72.0631     XY      -2.9373     YY     -73.9665
        XZ      -0.5493     YZ      -0.5977     ZZ     -82.5220

 Total job time:  38.28s(wall), 38.15s(cpu)
        *  Thank you very much for using Q-Chem.  Have a nice day.  *
