 Q-Chem 5.2, Q-Chem, Inc., Pleasanton, CA (2019)
 Q-Chem 5.2.1 for Intel X86 EM64T Linux

User input:
--------------------------------------------------------------
$molecule
0 1
C        -4.78109988740000    0.28475119300000    0.20534199150000
C        -3.54590324570000    0.77073907080000    0.15997700100000
C        -2.31555161270000    0.00020643080000    0.04567998040000
C        -2.28263494480000   -1.38507475800000   -0.13224261740000
C        -1.08295588780000   -2.05324061910000   -0.23341390490000
C         0.14912376850000   -1.39239193200000   -0.13976557800000
C         1.35647489430000   -2.21140264380000   -0.21319144500000
C         2.49323041300000   -1.99920703290000    0.43971603440000
C         0.10922028470000   -0.00705829360000    0.01375988110000
S         1.54953905690000    1.08063934470000    0.03889009550000
N         2.52261571800000    0.60732971040000   -1.22933591860000
O         1.09442370630000    2.39843367990000   -0.28455545500000
O         2.29492486680000    0.89570256620000    1.24752365330000
C        -1.09032431590000    0.66654211310000    0.09792360310000
H        -5.63314087240000    0.93591027710000    0.29569165670000
H        -4.99757640490000   -0.76887550590000    0.16056789610000
H        -3.39651909890000    1.84106497550000    0.22019780120000
H        -3.20291967990000   -1.94343515710000   -0.20199182700000
H        -1.08259042950000   -3.12500202840000   -0.37245977030000
H         1.24359399870000   -3.10785157390000   -0.81384593450000
H         2.63441266540000   -1.15438448050000    1.09168481210000
H         3.31493376200000   -2.69171290370000    0.35446483350000
H         2.11022192130000    0.80371385830000   -2.12514331640000
H         2.88405802920000   -0.33011689010000   -1.14918406720000
H        -1.05112461840000    1.74035136120000    0.19564701350000
$end

$rem
BASIS = 6-31G*
GUI = 2
METHOD = B3LYP
PRINT_ORBITALS false
MOLDEN_FORMAT false
--------------------------------------------------------------

             Standard Nuclear Orientation (Angstroms)
    I     Atom           X                Y                Z
 ----------------------------------------------------------------
    1      C       4.7361281482     0.5049943543    -0.1185640855
    2      C       3.4825941860     0.9425084186    -0.0841113291
    3      C       2.2808530746     0.1232199988    -0.0124574000
    4      C       2.2979159165    -1.2664706362     0.1297140744
    5      C       1.1231284618    -1.9819974489     0.1914141854
    6      C      -0.1315226721    -1.3660754377     0.0914047648
    7      C      -1.3076978749    -2.2318571856     0.1214131331
    8      C      -2.4399572138    -2.0459663104    -0.5471387610
    9      C      -0.1420410220     0.0232980005    -0.0262492110
   10      S      -1.6223308257     1.0559504290    -0.0508846427
   11      N      -2.5989537285     0.5133186276     1.1864737755
   12      O      -1.2239049172     2.3811825396     0.3142804774
   13      O      -2.3384557026     0.8743969771    -1.2775876220
   14      C       1.0321011257     0.7438064147    -0.0708152369
   15      H       5.5640477889     1.1900846799    -0.1764032526
   16      H       4.9920136423    -0.5404852280    -0.0964037658
   17      H       3.2933756269     2.0076121570    -0.1200289247
   18      H       3.2375463123    -1.7912001275     0.2025766947
   19      H       1.1613838599    -3.0562558254     0.3032706541
   20      H      -1.1712321552    -3.1386986864     0.7012098185
   21      H      -2.6018065205    -1.1904346423    -1.1800615268
   22      H      -3.2358902682    -2.7710782401    -0.4948720945
   23      H      -2.2103964434     0.7018276846     2.0945452720
   24      H      -2.9227025660    -0.4347439745     1.0758619083
   25      H       0.9535022139     1.8175378033    -0.1420605782
 ----------------------------------------------------------------

    9    -990.9548738613      6.87e-06  Convergence criterion met
 Total energy in the final basis set =     -990.9548738613

                    Orbital Energies (a.u.)
 --------------------------------------------------------------

 Alpha MOs
 -- Occupied --
-89.1122 -19.1385 -19.1377 -14.3613 -10.2296 -10.2261 -10.2154 -10.2129
-10.2108 -10.2091 -10.2083 -10.2029 -10.1939 -10.1935  -8.1380  -6.1029
 -6.1023  -6.1010  -1.1289  -1.0127  -0.9157  -0.8924  -0.8291  -0.7899
 -0.7799  -0.7379  -0.6782  -0.6454  -0.6215  -0.5940  -0.5824  -0.5418
 -0.5254  -0.5175  -0.5019  -0.4830  -0.4752  -0.4615  -0.4479  -0.4423
 -0.4248  -0.4081  -0.4032  -0.3866  -0.3756  -0.3579  -0.3440  -0.3396
 -0.3223  -0.3123  -0.3049  -0.2998  -0.2847  -0.2713  -0.2331

          Ground-State Mulliken Net Atomic Charges

     Atom                 Charge (a.u.)
  ----------------------------------------
      1 C                    -0.349521
      2 C                    -0.110440
      3 C                     0.187030
      4 C                    -0.174012
      5 C                    -0.178087
      6 C                     0.156504
      7 C                    -0.163380
      8 C                    -0.397706
      9 C                    -0.210686
     10 S                     1.176289
     11 N                    -0.818409
     12 O                    -0.510051
     13 O                    -0.510431
     14 C                    -0.245506
     15 H                     0.153597
     16 H                     0.145967
     17 H                     0.141753
     18 H                     0.138795
     19 H                     0.139940
     20 H                     0.141918
     21 H                     0.237469
     22 H                     0.151782
     23 H                     0.350269
     24 H                     0.356676
     25 H                     0.190241
  ----------------------------------------
  Sum of atomic charges =     0.000000

                    Cartesian Multipole Moments
 -----------------------------------------------------------------
    Charge (ESU x 10^10)
                 0.0000
    Dipole Moment (Debye)
         X       2.6655      Y      -4.4281      Z       2.6797
       Tot       5.8218
    Quadrupole Moments (Debye-Ang)
        XX     -83.3701     XY       9.1884     YY     -88.3562
        XZ      -5.9981     YZ      -1.0973     ZZ     -89.5164

 Total job time:  42.22s(wall), 42.09s(cpu)
        *  Thank you very much for using Q-Chem.  Have a nice day.  *
