 Q-Chem 5.2, Q-Chem, Inc., Pleasanton, CA (2019)
 Q-Chem 5.2.1 for Intel X86 EM64T Linux

User input:
--------------------------------------------------------------
$molecule
0 1
C        -3.95146398600000    2.39224169050000   -0.04353871460000
C        -2.62635594400000    2.37153212380000    0.03105293710000
C        -1.77408870570000    1.18766507920000    0.01919832340000
C        -2.28670783970000   -0.10989368720000    0.01035155590000
C        -1.41024318860000   -1.17565645410000   -0.00129058500000
F        -1.91679824270000   -2.42572468810000   -0.00873074260000
C        -0.03740510380000   -1.02186395960000   -0.00470380350000
C         0.48755154270000    0.27081503640000    0.00572427320000
C         1.91550309000000    0.54892817990000    0.00482400050000
C         2.92095787810000   -0.31414442400000   -0.00293139920000
F         2.86090016010000   -1.63802686840000   -0.01189870670000
F         4.19729147640000    0.06048385470000   -0.00258261190000
C        -0.39066410780000    1.35380256310000    0.01883427510000
H        -4.49590851930000    3.32050978800000   -0.02922718020000
H        -4.54724795140000    1.49970718980000   -0.12457916980000
H        -2.08966935880000    3.30923147870000    0.10294160710000
H        -3.34674580270000   -0.30088579870000    0.01659587910000
H         0.58833094390000   -1.89770735460000   -0.01393352210000
H         2.20425255510000    1.58986010750000    0.01156969070000
H         0.01462996500000    2.35529375900000    0.02703743580000
$end

$rem
BASIS = 6-31G*
GUI = 2
METHOD = B3LYP
PRINT_ORBITALS false
MOLDEN_FORMAT false
--------------------------------------------------------------

             Standard Nuclear Orientation (Angstroms)
    I     Atom           X                Y                Z
 ----------------------------------------------------------------
    1      C       4.3528982542     1.1632697092     0.0473167195
    2      C       3.0734818805     1.5092453441    -0.0254756300
    3      C       1.9276860476     0.6064037381    -0.0171030200
    4      C       2.0624413482    -0.7822458001    -0.0141259428
    5      C       0.9259698799    -1.5648910979    -0.0054634286
    6      F       1.0679978109    -2.9062146651    -0.0036961433
    7      C      -0.3511612061    -1.0383469652     0.0005076727
    8      C      -0.4991218869     0.3490225075    -0.0040525271
    9      C      -1.7949304991     1.0102767398    -0.0000234608
   10      C      -2.9994688171     0.4580557377     0.0057386557
   11      F      -3.3069739495    -0.8310445084     0.0093742698
   12      F      -4.1229171313     1.1702559355     0.0086859605
   13      C       0.6437842205     1.1477470643    -0.0141171149
   14      H       5.1323018141     1.9053656165     0.0359111943
   15      H       4.6793491157     0.1406762219     0.1239738687
   16      H       2.8162975497     2.5589084415    -0.0928859689
   17      H       3.0286481207    -1.2582390647    -0.0226315874
   18      H      -1.1942398671    -1.7076052351     0.0071545556
   19      H      -1.7853021457     2.0904912755    -0.0022341939
   20      H       0.5305095115     2.2222100205    -0.0177761938
 ----------------------------------------------------------------

    9    -684.7495058051      4.34e-06  Convergence criterion met
 Total energy in the final basis set =     -684.7495058051

                    Orbital Energies (a.u.)
 --------------------------------------------------------------

 Alpha MOs
 -- Occupied --
-24.7510 -24.7402 -24.7038 -10.3638 -10.2730 -10.2176 -10.2092 -10.2084
-10.1981 -10.1949 -10.1947 -10.1942 -10.1879  -1.2927  -1.2313  -1.2163
 -0.8808  -0.8231  -0.7914  -0.7496  -0.7369  -0.6608  -0.6349  -0.6169
 -0.5857  -0.5722  -0.5393  -0.5257  -0.5205  -0.5035  -0.4863  -0.4627
 -0.4593  -0.4470  -0.4441  -0.4393  -0.4335  -0.4172  -0.3892  -0.3842
 -0.3827  -0.3666  -0.3502  -0.3265  -0.2814  -0.2361  -0.2266

          Ground-State Mulliken Net Atomic Charges

     Atom                 Charge (a.u.)
  ----------------------------------------
      1 C                    -0.349435
      2 C                    -0.111205
      3 C                     0.184946
      4 C                    -0.264728
      5 C                     0.398896
      6 F                    -0.299940
      7 C                    -0.276043
      8 C                     0.202623
      9 C                    -0.296635
     10 C                     0.549230
     11 F                    -0.230867
     12 F                    -0.245115
     13 C                    -0.274809
     14 H                     0.148886
     15 H                     0.147642
     16 H                     0.130678
     17 H                     0.141655
     18 H                     0.153039
     19 H                     0.162449
     20 H                     0.128735
  ----------------------------------------
  Sum of atomic charges =     0.000000

                    Cartesian Multipole Moments
 -----------------------------------------------------------------
    Charge (ESU x 10^10)
                 0.0000
    Dipole Moment (Debye)
         X       0.7766      Y       1.7125      Z      -0.0040
       Tot       1.8804
    Quadrupole Moments (Debye-Ang)
        XX     -68.8555     XY       1.6059     YY     -70.4068
        XZ       0.0933     YZ      -0.1672     ZZ     -74.2635

 Total job time:  25.56s(wall), 25.40s(cpu)
        *  Thank you very much for using Q-Chem.  Have a nice day.  *
