 Q-Chem 5.2, Q-Chem, Inc., Pleasanton, CA (2019)
 Q-Chem 5.2.1 for Intel X86 EM64T Linux

User input:
--------------------------------------------------------------
$molecule
0 1
C        -5.58345462770000    1.07875010330000    0.12644677090000
C        -4.91822187010000   -0.06526213050000    0.00824982570000
C        -3.47322240890000   -0.23553501650000   -0.01451945830000
C        -2.57338305010000    0.82919414380000    0.08832779470000
C        -1.21335108910000    0.61907833890000    0.06303862940000
C        -0.68263843830000   -0.66950055050000   -0.06660746790000
C         0.73571683300000   -0.94835086590000   -0.09743490130000
C         1.73590933400000   -0.05559941910000   -0.01148415800000
C         3.11981473410000   -0.44008827580000   -0.05129637380000
C         4.12576443280000    0.42371553860000    0.03187946020000
F         4.00907617040000    1.74203748360000    0.16094014780000
F         5.41332076580000    0.09145873950000   -0.00203499820000
C        -1.58416378240000   -1.73480052130000   -0.17023317270000
C        -2.94419261000000   -1.52250263370000   -0.14481200400000
H        -6.65966716450000    1.10050160750000    0.13336048210000
H        -5.09406294680000    2.03279468350000    0.22038979950000
H        -5.47918867500000   -0.98802127050000   -0.08227305620000
H        -2.94562021280000    1.83684325070000    0.18975860090000
H        -0.55097703160000    1.46685189180000    0.14534921020000
H         0.99405725420000   -1.99573699240000   -0.20106768560000
H         1.53983112250000    1.00098978990000    0.09281853470000
H         3.37098522190000   -1.48456027570000   -0.15368975970000
H        -1.20227695680000   -2.74108488760000   -0.27174753380000
H        -3.61747568410000   -2.36445364340000   -0.22666388340000
$end

$rem
BASIS = 6-31G*
GUI = 2
METHOD = B3LYP
PRINT_ORBITALS false
MOLDEN_FORMAT false
--------------------------------------------------------------

             Standard Nuclear Orientation (Angstroms)
    I     Atom           X                Y                Z
 ----------------------------------------------------------------
    1      C       5.3836179936    -1.3526801115     0.0034072733
    2      C       4.7715457684    -0.1734292994     0.0013471500
    3      C       3.3358749127     0.0640168080    -0.0004636394
    4      C       2.3881599087    -0.9634907093    -0.0015531830
    5      C       1.0391920345    -0.6900671217    -0.0021400477
    6      C       0.5681228340     0.6278832113    -0.0015829221
    7      C      -0.8359580591     0.9728405276    -0.0006883420
    8      C      -1.8760359005     0.1225373363    -0.0012190901
    9      C      -3.2408618196     0.5718206203     0.0011454598
   10      C      -4.2853636791    -0.2491700937     0.0007474005
   11      F      -4.2292434519    -1.5777359488    -0.0022276789
   12      F      -5.5563375548     0.1432120777     0.0035259981
   13      C       1.5175495652     1.6559586015    -0.0012157833
   14      C       2.8664144095     1.3803530478    -0.0007145238
   15      H       6.4576996021    -1.4240930542     0.0052077637
   16      H       4.8509931080    -2.2880096250     0.0033507434
   17      H       5.3742358521     0.7271967149     0.0015022365
   18      H       2.7138014110    -1.9921611984    -0.0018236648
   19      H       0.3386404356    -1.5107141365    -0.0027361787
   20      H      -1.0460029959     2.0360316605     0.0010334724
   21      H      -1.7286096436    -0.9470274006    -0.0030206611
   22      H      -3.4438796902     1.6316647228     0.0037913491
   23      H       1.1822063110     2.6837211397    -0.0011379894
   24      H       3.5775968606     2.1946691135    -0.0002704565
 ----------------------------------------------------------------

    9    -662.9224456618      8.12e-06  Convergence criterion met
 Total energy in the final basis set =     -662.9224456618

                    Orbital Energies (a.u.)
 --------------------------------------------------------------

 Alpha MOs
 -- Occupied --
-24.7413 -24.7373 -10.3567 -10.2041 -10.2001 -10.1976 -10.1953 -10.1933
-10.1905 -10.1891 -10.1883 -10.1883 -10.1877 -10.1802  -1.2842  -1.2251
 -0.8688  -0.8299  -0.7999  -0.7600  -0.7510  -0.7159  -0.6507  -0.6205
 -0.6194  -0.5840  -0.5633  -0.5575  -0.5368  -0.5185  -0.5005  -0.4793
 -0.4628  -0.4468  -0.4412  -0.4405  -0.4276  -0.4219  -0.4173  -0.4086
 -0.3846  -0.3790  -0.3682  -0.3475  -0.3384  -0.3361  -0.3018  -0.2555
 -0.2490  -0.1983

          Ground-State Mulliken Net Atomic Charges

     Atom                 Charge (a.u.)
  ----------------------------------------
      1 C                    -0.353681
      2 C                    -0.113396
      3 C                     0.180487
      4 C                    -0.185314
      5 C                    -0.183052
      6 C                     0.186028
      7 C                    -0.200197
      8 C                    -0.107894
      9 C                    -0.226084
     10 C                     0.532526
     11 F                    -0.238212
     12 F                    -0.245184
     13 C                    -0.196555
     14 C                    -0.200666
     15 H                     0.144729
     16 H                     0.143012
     17 H                     0.126733
     18 H                     0.128146
     19 H                     0.128918
     20 H                     0.122613
     21 H                     0.142365
     22 H                     0.159070
     23 H                     0.127035
     24 H                     0.128575
  ----------------------------------------
  Sum of atomic charges =     0.000000

                    Cartesian Multipole Moments
 -----------------------------------------------------------------
    Charge (ESU x 10^10)
                 0.0000
    Dipole Moment (Debye)
         X       0.7620      Y       0.6520      Z       0.0018
       Tot       1.0029
    Quadrupole Moments (Debye-Ang)
        XX     -79.5803     XY      -2.0308     YY     -72.0267
        XZ       0.0054     YZ       0.0050     ZZ     -83.6924

 Total job time:  29.27s(wall), 29.17s(cpu)
        *  Thank you very much for using Q-Chem.  Have a nice day.  *
