 Q-Chem 5.2, Q-Chem, Inc., Pleasanton, CA (2019)
 Q-Chem 5.2.1 for Intel X86 EM64T Linux

User input:
--------------------------------------------------------------
$molecule
0 1
C        -3.88536792290000   -0.88906936470000   -0.17511427740000
C        -3.00290774810000    0.09743323150000   -0.06977233180000
C        -1.55810493110000   -0.04670850890000    0.01655430160000
C        -0.90174123980000   -1.27224441340000    0.16817546300000
N         0.40287082710000   -1.39280358730000    0.22879292680000
C         1.18519825540000   -0.31505483970000    0.13010162880000
C         2.61152701500000   -0.63506520480000    0.17197888750000
C         3.59203000170000   -0.01345069980000   -0.46919108550000
C         0.64267816940000    0.97725904610000    0.03404235970000
C         1.47192020560000    2.22407613500000    0.03370594900000
C        -0.73928303820000    1.08159634000000   -0.02177883090000
H        -4.94153534320000   -0.69033466590000   -0.23793728080000
H        -3.59584255420000   -1.92518448530000   -0.20812849760000
H        -3.35472365720000    1.12273408790000   -0.05568597230000
H        -1.45244067080000   -2.19868621680000    0.25797554470000
H         2.82587646020000   -1.52775272210000    0.74508378730000
H         3.42814381960000    0.83240062200000   -1.11302978940000
H         4.60944436490000   -0.35984903230000   -0.39578785670000
H         2.37535140430000    2.09080330990000    0.62414755490000
H         0.89805176660000    3.05366811760000    0.44323631050000
H         1.76124086050000    2.49063107740000   -0.98294057770000
H        -1.19217291440000    2.06248255930000   -0.09594738870000
$end

$rem
BASIS = 6-31G*
GUI = 2
METHOD = B3LYP
PRINT_ORBITALS false
MOLDEN_FORMAT false
--------------------------------------------------------------

             Standard Nuclear Orientation (Angstroms)
    I     Atom           X                Y                Z
 ----------------------------------------------------------------
    1      C       3.9843892897    -0.3427311358     0.2159034374
    2      C       2.9703674961     0.5008690792     0.0638549671
    3      C       1.5619224857     0.1468152622    -0.0174645043
    4      C       1.0894131630    -1.1659553993    -0.1129037788
    5      N      -0.1838823414    -1.4753761330    -0.1694635214
    6      C      -1.1135096258    -0.5178582742    -0.1218063864
    7      C      -2.4787874432    -1.0410833679    -0.1505475027
    8      C      -3.5433550465    -0.5381655895     0.4599106533
    9      C      -0.7628066412     0.8420281234    -0.0851047707
   10      C      -1.7623463387     1.9554439664    -0.1435930140
   11      C       0.5894005768     1.1463081064    -0.0324893066
   12      H       5.0005842560     0.0083711883     0.2707375376
   13      H       3.8462778471    -1.4070938426     0.2965674233
   14      H       3.1715256473     1.5643573279     0.0026761424
   15      H       1.7680359887    -2.0067743674    -0.1589782444
   16      H      -2.5583112707    -1.9805606275    -0.6819083537
   17      H      -3.5076072244     0.3509927094     1.0640389746
   18      H      -4.4999280986    -1.0301579827     0.4014016268
   19      H      -2.6326293708     1.6668862018    -0.7283260532
   20      H      -1.3102454293     2.8392944369    -0.5904443018
   21      H      -2.0949151813     2.2238456307     0.8592462804
   22      H       0.8962617316     2.1844476315    -0.0033251488
 ----------------------------------------------------------------

    9    -442.3973553136      2.71e-06  Convergence criterion met
 Total energy in the final basis set =     -442.3973553136

                    Orbital Energies (a.u.)
 --------------------------------------------------------------

 Alpha MOs
 -- Occupied --
-14.3198 -10.2207 -10.2135 -10.2017 -10.1995 -10.1980 -10.1957 -10.1865
-10.1848 -10.1845 -10.1819  -0.9458  -0.8259  -0.8121  -0.7744  -0.7324
 -0.7029  -0.6394  -0.6216  -0.5799  -0.5573  -0.5066  -0.5011  -0.4645
 -0.4502  -0.4319  -0.4251  -0.4186  -0.4084  -0.3961  -0.3916  -0.3747
 -0.3630  -0.3417  -0.3234  -0.2769  -0.2663  -0.2460  -0.2191

          Ground-State Mulliken Net Atomic Charges

     Atom                 Charge (a.u.)
  ----------------------------------------
      1 C                    -0.349007
      2 C                    -0.117961
      3 C                     0.161299
      4 C                    -0.012638
      5 N                    -0.477327
      6 C                     0.219085
      7 C                    -0.093107
      8 C                    -0.342651
      9 C                     0.143528
     10 C                    -0.540278
     11 C                    -0.219193
     12 H                     0.147020
     13 H                     0.149466
     14 H                     0.128983
     15 H                     0.135314
     16 H                     0.148216
     17 H                     0.146769
     18 H                     0.146563
     19 H                     0.173544
     20 H                     0.155487
     21 H                     0.167001
     22 H                     0.129887
  ----------------------------------------
  Sum of atomic charges =     0.000000

                    Cartesian Multipole Moments
 -----------------------------------------------------------------
    Charge (ESU x 10^10)
                 0.0000
    Dipole Moment (Debye)
         X       0.2184      Y       1.9763      Z       0.1431
       Tot       1.9935
    Quadrupole Moments (Debye-Ang)
        XX     -56.9402     XY      -1.0223     YY     -63.5237
        XZ      -0.2035     YZ       0.5803     ZZ     -67.5683

 Total job time:  26.75s(wall), 26.65s(cpu)
        *  Thank you very much for using Q-Chem.  Have a nice day.  *
