 Q-Chem 5.2, Q-Chem, Inc., Pleasanton, CA (2019)
 Q-Chem 5.2.1 for Intel X86 EM64T Linux

User input:
--------------------------------------------------------------
$molecule
0 1
C        -3.95210105780000    1.62082718480000   -0.00185845870000
N        -3.17761205370000    0.41352915960000    0.00020894320000
C        -3.67154980110000   -0.86144480100000    0.00186946320000
C        -2.65596260140000   -1.76782025780000    0.00256133710000
C        -1.81571026500000    0.34546010240000   -0.00023689410000
C        -1.44374491060000   -1.02354688680000    0.00101308360000
C        -0.09710125170000   -1.36827402880000    0.00006326340000
C         0.86494319660000   -0.36593543270000   -0.00159000590000
C         2.26090613960000   -0.77101919790000   -0.00309996080000
C         3.35108611850000   -0.01886680290000    0.00008384420000
F         3.44224560100000    1.30862164060000    0.00591823170000
F         4.58598343540000   -0.52945038980000   -0.00211251220000
C         0.46867432070000    0.98716725160000   -0.00225989060000
C        -0.85654510820000    1.35295353830000   -0.00168088660000
H        -5.01145154670000    1.37061978020000   -0.00414398840000
H        -3.72894504080000    2.21950899710000   -0.88876010350000
H        -3.73295422600000    2.22033986830000    0.88550601770000
H        -4.73221193400000   -1.02972994770000    0.00248678330000
H        -2.75003052800000   -2.83511142830000    0.00393845200000
H         0.19581117270000   -2.40787023820000    0.00077055070000
H         2.44833916640000   -1.83558854310000   -0.00723830940000
H         1.21912213330000    1.75959231050000   -0.00358021840000
H        -1.13891936970000    2.39495265500000   -0.00242440470000
$end

$rem
BASIS = 6-31G*
GUI = 2
METHOD = B3LYP
PRINT_ORBITALS false
MOLDEN_FORMAT false
--------------------------------------------------------------

             Standard Nuclear Orientation (Angstroms)
    I     Atom           X                Y                Z
 ----------------------------------------------------------------
    1      C       3.8482981662    -1.5641743031    -0.0016259176
    2      N       3.0577582532    -0.3673247036     0.0002964654
    3      C       3.5346283967     0.9141309202     0.0017817827
    4      C       2.5070297122     1.8068654287     0.0023720828
    5      C       1.6950689968    -0.3174460383    -0.0001353862
    6      C       1.3048576823     1.0464725420     0.0009416371
    7      C      -0.0462687824     1.3731882897    -0.0000306694
    8      C      -0.9948441564     0.3580935123    -0.0015365551
    9      C      -2.3960914056     0.7445019122    -0.0030760680
   10      C      -3.4761313296    -0.0221392145     0.0002245244
   11      F      -3.5495578211    -1.3507257163     0.0062342174
   12      F      -4.7177359667     0.4719100779    -0.0020179081
   13      C      -0.5805438343    -0.9895976017    -0.0020359759
   14      C       0.7494414887    -1.3376567239    -0.0014313688
   15      H       4.9042133886    -1.2998449385    -0.0039620101
   16      H       3.6331423508    -2.1658986331    -0.8884454334
   17      H       3.6371889976    -2.1664432638     0.8858207137
   18      H       4.5929490253     1.0965632243     0.0023592418
   19      H       2.5868386807     2.8753176341     0.0036079040
   20      H      -0.3530358919     2.4087809103     0.0005454555
   21      H      -2.5977220375     1.8064731795    -0.0073506214
   22      H      -1.3206112618    -1.7719740336    -0.0032425740
   23      H       1.0457034581    -2.3757927491    -0.0020432327
 ----------------------------------------------------------------

    9    -678.9960582101      5.35e-06  Convergence criterion met
 Total energy in the final basis set =     -678.9960582101

                    Orbital Energies (a.u.)
 --------------------------------------------------------------

 Alpha MOs
 -- Occupied --
-24.7321 -24.7208 -14.3823 -10.3416 -10.2348 -10.2132 -10.2086 -10.1911
-10.1904 -10.1841 -10.1792 -10.1771 -10.1764 -10.1679  -1.2715  -1.2108
 -0.9963  -0.8529  -0.8090  -0.7864  -0.7425  -0.7182  -0.6932  -0.6344
 -0.6137  -0.5887  -0.5717  -0.5593  -0.5297  -0.5070  -0.5057  -0.4755
 -0.4742  -0.4635  -0.4453  -0.4375  -0.4285  -0.4215  -0.4126  -0.4082
 -0.3946  -0.3939  -0.3826  -0.3610  -0.3431  -0.3323  -0.2795  -0.2656
 -0.2046  -0.1948

          Ground-State Mulliken Net Atomic Charges

     Atom                 Charge (a.u.)
  ----------------------------------------
      1 C                    -0.324948
      2 N                    -0.484255
      3 C                     0.034701
      4 C                    -0.239068
      5 C                     0.309733
      6 C                     0.122803
      7 C                    -0.286126
      8 C                     0.193600
      9 C                    -0.290698
     10 C                     0.527988
     11 F                    -0.240387
     12 F                    -0.256488
     13 C                    -0.221328
     14 C                    -0.165154
     15 H                     0.170064
     16 H                     0.172935
     17 H                     0.172913
     18 H                     0.145139
     19 H                     0.126399
     20 H                     0.122623
     21 H                     0.153615
     22 H                     0.132451
     23 H                     0.123490
  ----------------------------------------
  Sum of atomic charges =     0.000000

                    Cartesian Multipole Moments
 -----------------------------------------------------------------
    Charge (ESU x 10^10)
                 0.0000
    Dipole Moment (Debye)
         X       3.6355      Y      -0.7141      Z      -0.0046
       Tot       3.7050
    Quadrupole Moments (Debye-Ang)
        XX     -70.1989     XY      -5.6941     YY     -71.5292
        XZ       0.0041     YZ       0.0088     ZZ     -81.8050

 Total job time:  33.60s(wall), 33.49s(cpu)
        *  Thank you very much for using Q-Chem.  Have a nice day.  *
