 Q-Chem 5.2, Q-Chem, Inc., Pleasanton, CA (2019)
 Q-Chem 5.2.1 for Intel X86 EM64T Linux

User input:
--------------------------------------------------------------
$molecule
0 1
C        -2.84886228350000   -3.05174502430000   -0.04156898570000
C        -3.01596396420000   -1.73473046770000   -0.09926943120000
C        -1.91625149060000   -0.80786916710000   -0.03247802230000
N        -0.65100495260000   -1.08764289750000    0.08501670080000
C        -0.01039239610000    0.11380747010000    0.10480444390000
C         1.44504748880000    0.26340598280000    0.22588560920000
O         2.00851050060000    1.33504542290000    0.24233072270000
O         2.05843847290000   -0.91213708990000    0.32645599850000
C         3.48030576940000   -0.89103733400000    0.43536179580000
C         4.14085883890000   -0.77003939410000   -0.93108948980000
C        -0.95727283010000    1.12359005800000   -0.00747343160000
C        -0.81083805170000    2.55124160070000   -0.03756532880000
C        -1.83414084120000    3.39501264410000   -0.14854597230000
O        -2.16346658200000    0.52354551080000   -0.09373653360000
H        -3.68243116110000   -3.72958568580000   -0.09258655320000
H        -1.86327089960000   -3.47127349540000    0.05898587370000
H        -3.99050510090000   -1.27832340020000   -0.19958894040000
H         3.74045231050000   -1.83624434880000    0.91597788310000
H         3.77694461410000   -0.05126862020000    1.07324736550000
H         3.80320125210000   -1.57252068200000   -1.58234802500000
H         5.22000934640000   -0.82914175610000   -0.82151040220000
H         3.88430886020000    0.18472519020000   -1.38359329230000
H         0.21214355640000    2.88877551970000    0.03885064880000
H        -2.84950287880000    3.04235140140000   -0.22322342480000
H        -1.68366002410000    4.45967893210000   -0.16758677740000
$end

$rem
BASIS = 6-31G*
GUI = 2
METHOD = B3LYP
PRINT_ORBITALS false
MOLDEN_FORMAT false
--------------------------------------------------------------

             Standard Nuclear Orientation (Angstroms)
    I     Atom           X                Y                Z
 ----------------------------------------------------------------
    1      C      -2.8426717938    -3.0767470912    -0.0446104563
    2      C      -3.0258387797    -1.7619303143    -0.1036558107
    3      C      -1.9381273764    -0.8214324172    -0.0312120675
    4      N      -0.6701524634    -1.0854017086     0.0932346495
    5      C      -0.0446616135     0.1239359674     0.1160944478
    6      C       1.4081249602     0.2916743615     0.2450154498
    7      O       1.9581073608     1.3702498250     0.2641576940
    8      O       2.0355465040    -0.8761144853     0.3493027162
    9      C       3.4564291587    -0.8372860839     0.4659093974
   10      C       4.1228293513    -0.7084380443    -0.8969805251
   11      C      -1.0034150027     1.1218223473    -0.0016530091
   12      C      -0.8746014112     2.5511782003    -0.0314271289
   13      C      -1.9077106888     3.3821148464    -0.1482363175
   14      O      -2.2015603294     0.5067850598    -0.0942546275
   15      H      -3.6674494564    -3.7649261493    -0.0999206694
   16      H      -1.8524947151    -3.4839463151     0.0614269833
   17      H      -4.0054269602    -1.3177177226    -0.2094103006
   18      H       3.7257096029    -1.7790531578     0.9482445174
   19      H       3.7391264003     0.0062803722     1.1051135907
   20      H       3.7987255670    -1.5152341825    -1.5497923443
   21      H       5.2020214921    -0.7540719527    -0.7815320379
   22      H       3.8568736351     0.2429381205    -1.3511874651
   23      H       0.1436697426     2.9014417239     0.0504217572
   24      H      -2.9181841073     3.0168204934    -0.2283003393
   25      H      -1.7703930662     4.4485669012    -0.1668163793
 ----------------------------------------------------------------

    9    -668.0784955939      8.57e-06  Convergence criterion met
 Total energy in the final basis set =     -668.0784955939

                    Orbital Energies (a.u.)
 --------------------------------------------------------------

 Alpha MOs
 -- Occupied --
-19.2389 -19.1882 -19.1324 -14.3329 -10.3168 -10.2831 -10.2645 -10.2398
-10.2270 -10.2092 -10.2015 -10.1978 -10.1933 -10.1773  -1.1533  -1.1083
 -1.0166  -0.9359  -0.8345  -0.7950  -0.7758  -0.7384  -0.6879  -0.6557
 -0.6319  -0.5854  -0.5776  -0.5523  -0.5361  -0.4950  -0.4913  -0.4781
 -0.4770  -0.4589  -0.4543  -0.4397  -0.4376  -0.4058  -0.4008  -0.3848
 -0.3826  -0.3764  -0.3702  -0.3458  -0.3383  -0.3180  -0.2969  -0.2940
 -0.2896  -0.2735  -0.2172

          Ground-State Mulliken Net Atomic Charges

     Atom                 Charge (a.u.)
  ----------------------------------------
      1 C                    -0.326548
      2 C                    -0.118294
      3 C                     0.507420
      4 N                    -0.506503
      5 C                     0.145374
      6 C                     0.597041
      7 O                    -0.509913
      8 O                    -0.439915
      9 C                    -0.044821
     10 C                    -0.465804
     11 C                     0.301222
     12 C                    -0.112835
     13 C                    -0.343680
     14 O                    -0.483739
     15 H                     0.154946
     16 H                     0.182325
     17 H                     0.150817
     18 H                     0.154588
     19 H                     0.166171
     20 H                     0.160595
     21 H                     0.150599
     22 H                     0.176806
     23 H                     0.189506
     24 H                     0.159448
     25 H                     0.155193
  ----------------------------------------
  Sum of atomic charges =     0.000000

                    Cartesian Multipole Moments
 -----------------------------------------------------------------
    Charge (ESU x 10^10)
                 0.0000
    Dipole Moment (Debye)
         X      -1.0425      Y      -0.6231      Z      -0.2370
       Tot       1.2375
    Quadrupole Moments (Debye-Ang)
        XX     -66.9004     XY      -2.5529     YY     -75.9732
        XZ       0.8261     YZ      -0.4225     ZZ     -81.7331

 Total job time:  34.80s(wall), 34.05s(cpu)
        *  Thank you very much for using Q-Chem.  Have a nice day.  *
