 Q-Chem 5.4, Q-Chem, Inc., Pleasanton, CA (2021)
 Q-Chem 5.4.2 for Intel X86 EM64T Linux

User input:
--------------------------------------------------------------
$molecule
0 1
C           -2.01466182410000        3.94570832650000       -0.00717071720000
C           -0.80382859900000        3.41674736270000        0.11888445330000
C           -0.46701438660000        1.99656524690000        0.10863401460000
C           -1.43283638690000        0.99367064860000        0.03867979430000
C           -1.07998634440000       -0.35465557810000        0.02867597200000
C           -2.05543562800000       -1.43336837170000       -0.04436015170000
C           -3.37481587780000       -1.35108335980000       -0.12748308010000
F           -4.12721149980000       -0.25801875590000       -0.16452666820000
F           -4.16672116120000       -2.41895776790000       -0.18961303840000
C            0.26950761240000       -0.70359168260000        0.09277229280000
C            1.24252013720000        0.28409402650000        0.16569135770000
C            2.69003480950000       -0.04488242170000        0.23726819880000
O            3.56622003310000        0.78357091060000        0.28612915350000
O            2.91200721210000       -1.36519679610000        0.25369639770000
C            4.27401655000000       -1.78903652220000        0.30805627150000
C            4.91200419460000       -1.79402031010000       -1.07375673260000
C            0.87441514960000        1.62427578760000        0.17348712520000
H           -2.16022029400000        5.01202875910000        0.01077809170000
H           -2.90429003050000        3.35334679840000       -0.13544093420000
H            0.04818288470000        4.07428444210000        0.23705728380000
H           -2.47136857770000        1.27277429050000       -0.00432314820000
H           -1.65989156380000       -2.43883685140000       -0.03109288950000
H            0.56476373680000       -1.74086746730000        0.08729200340000
H            4.24045907700000       -2.79537304870000        0.73096218390000
H            4.82663547000000       -1.12057582300000        0.97654011220000
H            4.33758093980000       -2.42029145060000       -1.75233044240000
H            5.92516708540000       -2.17945453500000       -1.00522288870000
H            4.94612331970000       -0.78198216690000       -1.46951713820000
H            1.65311778800000        2.37052646980000        0.23052758040000
$end

$rem
BASIS = 6-31G*
GUI = 2
METHOD = B3LYP
PRINT_ORBITALS false
MOLDEN_FORMAT false
$end
--------------------------------------------------------------

             Standard Nuclear Orientation (Angstroms)
    I     Atom           X                Y                Z
 ----------------------------------------------------------------
    1      C       2.6421368355    -3.5858569322    -0.2173675671
    2      C       1.3700117189    -3.2384328861    -0.0663678118
    3      C       0.8390859356    -1.8806252485     0.0039341013
    4      C       1.6559192042    -0.7509221944    -0.0036636202
    5      C       1.1190990461     0.5336056731     0.0626622256
    6      C       1.9349195120     1.7397792729     0.0564103542
    7      C       3.2526243669     1.8465427404    -0.0254429623
    8      F       4.1494706480     0.8726000091    -0.1222103729
    9      F       3.8882282346     3.0158704956    -0.0222515017
   10      C      -0.2655490445     0.6873731520     0.1407897514
   11      C      -1.0916056890    -0.4284646457     0.1521938178
   12      C      -2.5705222965    -0.3084803538     0.2361992463
   13      O      -3.3229051467    -1.2520554735     0.2332154519
   14      O      -2.9737473466     0.9650094222     0.3278781963
   15      C      -4.3812329233     1.1916517420     0.4005566407
   16      C      -5.0187176593     1.1878433791    -0.9814921858
   17      C      -0.5408184020    -1.7026937073     0.0842021150
   18      H       2.9345198874    -4.6208493951    -0.2603959947
   19      H       3.4403515501    -2.8692256289    -0.3072375778
   20      H       0.6180686162    -4.0136874756     0.0098246343
   21      H       2.7229969921    -0.8800748792    -0.0580859138
   22      H       1.4035464999     2.6780765643     0.1259725967
   23      H      -0.7020953957     1.6721328564     0.1939204763
   24      H      -4.4863090853     2.1667364646     0.8810329703
   25      H      -4.8331815353     0.4153721600     1.0268397117
   26      H      -4.5393503525     1.9260266170    -1.6201880361
   27      H      -6.0753554742     1.4241641029    -0.8953265532
   28      H      -4.9133072265     0.2054742762    -1.4352004656
   29      H      -1.2080581006    -2.5519317438     0.0945672086
 ----------------------------------------------------------------

    9    -852.7133826047      6.48e-06  Convergence criterion met
 Total energy in the final basis set =     -852.7133826047

                    Orbital Energies (a.u.)
 --------------------------------------------------------------

 Alpha MOs
 -- Occupied --
-24.7503 -24.7392 -19.1924 -19.1333 -10.3626 -10.3147 -10.2438 -10.2149
-10.2083 -10.2046 -10.2041 -10.1999 -10.1975 -10.1954 -10.1946 -10.1848
-10.1808  -1.2914  -1.2301  -1.1094  -1.0181  -0.8812  -0.8211  -0.8042
 -0.7737  -0.7499  -0.7360  -0.6754  -0.6513  -0.6413  -0.6113  -0.5901
 -0.5724  -0.5519  -0.5430  -0.5246  -0.5102  -0.4961  -0.4821  -0.4734
 -0.4674  -0.4579  -0.4463  -0.4432  -0.4414  -0.4346  -0.4197  -0.4116
 -0.4090  -0.3960  -0.3833  -0.3800  -0.3740  -0.3588  -0.3507  -0.3411
 -0.3248  -0.3004  -0.2907  -0.2749  -0.2393  -0.2260

          Ground-State Mulliken Net Atomic Charges

     Atom                 Charge (a.u.)
  ----------------------------------------
      1 C                    -0.353459
      2 C                    -0.109931
      3 C                     0.175439
      4 C                    -0.248381
      5 C                     0.197588
      6 C                    -0.296764
      7 C                     0.546512
      8 F                    -0.232569
      9 F                    -0.246237
     10 C                    -0.235649
     11 C                     0.050250
     12 C                     0.603836
     13 O                    -0.491289
     14 O                    -0.469611
     15 C                    -0.045863
     16 C                    -0.464602
     17 C                    -0.236485
     18 H                     0.148441
     19 H                     0.147954
     20 H                     0.134549
     21 H                     0.141535
     22 H                     0.162633
     23 H                     0.152842
     24 H                     0.151178
     25 H                     0.169285
     26 H                     0.156394
     27 H                     0.152197
     28 H                     0.179807
     29 H                     0.160401
  ----------------------------------------
  Sum of atomic charges =     0.000000

                    Cartesian Multipole Moments
 -----------------------------------------------------------------
    Charge (ESU x 10^10)
                -0.0000
    Dipole Moment (Debye)
         X      -0.1945      Y       1.3784      Z      -0.0734
       Tot       1.3940
    Quadrupole Moments (Debye-Ang)
        XX     -92.9325     XY     -11.2853     YY     -91.6154
        XZ      -0.2283     YZ       0.7912     ZZ     -97.8965

 Total job time:  91.14s(wall), 80.34s(cpu)
        *  Thank you very much for using Q-Chem.  Have a nice day.  *
