 Q-Chem 5.2, Q-Chem, Inc., Pleasanton, CA (2019)
 Q-Chem 5.2.1 for Intel X86 EM64T Linux

User input:
--------------------------------------------------------------
$molecule
0 1
F         6.56109998730000   -0.05428871800000   -0.28679515360000
C         5.29197452750000   -0.33853656270000   -0.00414636180000
F         5.25991981750000   -1.23058300510000    0.97817434020000
C         4.26843174020000    0.21469766060000   -0.63883129950000
C         2.84765946730000   -0.00697629220000   -0.43014360660000
C         1.94702349760000    0.68961408590000   -1.24172793670000
C         0.58641654790000    0.52452385980000   -1.10300160630000
C         0.08764077180000   -0.34147845820000   -0.13221015050000
N        -1.29244617550000   -0.52294823340000    0.01111905920000
C        -2.27946843630000    0.44579145930000    0.06059047320000
C        -2.01642295960000    1.87480438370000    0.14624046480000
C        -2.91206415020000    2.75400370050000   -0.46094930410000
C        -2.70613659450000    4.11793249950000   -0.38907087880000
C        -1.61083047350000    4.62105009440000    0.29466344280000
C        -0.73096045520000    3.75362944260000    0.92070856500000
C        -0.92981988490000    2.38736321830000    0.85250013650000
N        -3.48100935380000   -0.05913261420000    0.07698286840000
C        -1.95035828520000   -1.73495988400000   -0.00220714230000
C        -3.32836312480000   -1.41740438690000    0.03734100470000
C        -4.28188146660000   -2.42938922740000    0.02548255610000
C        -3.83203051400000   -3.73090950860000   -0.03806896350000
C        -2.47024010350000   -4.03307101190000   -0.09993515190000
C        -1.50637748700000   -3.04433659630000   -0.08787894320000
C         0.97351519700000   -1.04010151500000    0.68351282360000
C         2.33561956120000   -0.87637561090000    0.53537717000000
H         4.53687009890000    0.92029820100000   -1.41185105160000
H         2.32421347540000    1.36316043470000   -1.99668919980000
H        -0.09844220410000    1.06215599840000   -1.74128631170000
H        -3.76271016780000    2.34489306680000   -0.98314193810000
H        -3.40144021840000    4.79243281460000   -0.86644812010000
H        -1.44820730110000    5.68730459880000    0.34848887950000
H         0.11303788800000    4.14302226470000    1.47092413590000
H        -0.25138854560000    1.72220578890000    1.36649822220000
H        -5.33211688810000   -2.18920637190000    0.05964931470000
H        -4.54604292810000   -4.54105643630000   -0.04827868110000
H        -2.16355687970000   -5.06669781480000   -0.16063789060000
H        -0.45530390780000   -3.28405677720000   -0.14996384940000
H         0.58683202710000   -1.69968009750000    1.44577523070000
H         2.99871372740000   -1.42622724130000    1.18241933690000
$end

$rem
BASIS = 6-31G*
GUI = 2
METHOD = B3LYP
PRINT_ORBITALS false
MOLDEN_FORMAT false
--------------------------------------------------------------

             Standard Nuclear Orientation (Angstroms)
    I     Atom           X                Y                Z
 ----------------------------------------------------------------
    1      F       6.6253475676     0.1479940349     0.2738003069
    2      C       5.3526013683     0.4175503247    -0.0069542623
    3      F       5.3087955910     1.3111241911    -0.9874312486
    4      C       4.3364492650    -0.1492119729     0.6276702836
    5      C       2.9128970967     0.0558051135     0.4209072203
    6      C       2.0215519322    -0.6531831256     1.2320125797
    7      C       0.6589143789    -0.5041640087     1.0950335660
    8      C       0.1487463696     0.3577400196     0.1265174905
    9      N      -1.2335713082     0.5229128246    -0.0150109734
   10      C      -2.2089437793    -0.4575076601    -0.0654210131
   11      C      -1.9288517277    -1.8830834784    -0.1542399911
   12      C      -2.8132272101    -2.7741954766     0.4520960619
   13      C      -2.5910156982    -4.1354056075     0.3772398103
   14      C      -1.4904750642    -4.6239562940    -0.3086493756
   15      C      -0.6217482246    -3.7447734931    -0.9338482335
   16      C      -0.8369240856    -2.3811338439    -0.8626645690
   17      N      -3.4164769296     0.0329838012    -0.0795427912
   18      C      -1.9059728321     1.7269075304     0.0014544988
   19      C      -3.2801070300     1.3929080344    -0.0373066985
   20      C      -4.2456933595     2.3933440508    -0.0224075135
   21      C      -3.8114335695     3.7000417015     0.0433146439
   22      C      -2.4533040947     4.0184086906     0.1043794573
   23      C      -1.4776535956     3.0413459887     0.0893188962
   24      C       1.0253022611     1.0685918645    -0.6887070595
   25      C       2.3894307357     0.9209359984    -0.5423175363
   26      H       4.6141607176    -0.8530936973     1.3989793522
   27      H       2.4076030794    -1.3236707653     1.9852152808
   28      H      -0.0187617844    -1.0512656836     1.7329379214
   29      H      -3.6681684753    -2.3763815282     0.9759994885
   30      H      -3.2776636740    -4.8191666568     0.8539705727
   31      H      -1.3151194772    -5.6880705588    -0.3648044422
   32      H       0.2262793490    -4.1228944771    -1.4857276620
   33      H      -0.1670739010    -1.7068438345    -1.3760175017
   34      H      -5.2930051640     2.1406365036    -0.0559707661
   35      H      -4.5351098627     4.5015340938     0.0559074228
   36      H      -2.1589883426     5.0555192896     0.1668585209
   37      H      -0.4294684819     3.2935447311     0.1507984162
   38      H       0.6299185517     1.7250134833    -1.4492293395
   39      H       3.0451878844     1.4800125466    -1.1889319729
 ----------------------------------------------------------------

    9   -1117.8409011102      4.58e-06  Convergence criterion met
 Total energy in the final basis set =    -1117.8409011102

                    Orbital Energies (a.u.)
 --------------------------------------------------------------

 Alpha MOs
 -- Occupied --
-24.7534 -24.7425 -14.3948 -14.3090 -10.3662 -10.2517 -10.2433 -10.2187
-10.2179 -10.2122 -10.2049 -10.2046 -10.2036 -10.2027 -10.2017 -10.2012
-10.1924 -10.1912 -10.1902 -10.1894 -10.1885 -10.1875 -10.1820 -10.1795
-10.1780  -1.2945  -1.2333  -1.0307  -0.9142  -0.8724  -0.8663  -0.8428
 -0.8144  -0.7776  -0.7680  -0.7566  -0.7514  -0.7364  -0.7210  -0.6666
 -0.6449  -0.6360  -0.6308  -0.6159  -0.5939  -0.5905  -0.5810  -0.5776
 -0.5496  -0.5400  -0.5278  -0.5207  -0.5023  -0.4942  -0.4768  -0.4731
 -0.4635  -0.4543  -0.4494  -0.4476  -0.4430  -0.4422  -0.4378  -0.4353
 -0.4262  -0.4239  -0.4191  -0.4126  -0.3952  -0.3887  -0.3743  -0.3647
 -0.3610  -0.3561  -0.3500  -0.3471  -0.3399  -0.3216  -0.2963  -0.2741
 -0.2685  -0.2629  -0.2534  -0.2392  -0.2149  -0.2118

          Ground-State Mulliken Net Atomic Charges

     Atom                 Charge (a.u.)
  ----------------------------------------
      1 F                    -0.244758
      2 C                     0.547214
      3 F                    -0.232885
      4 C                    -0.300625
      5 C                     0.205603
      6 C                    -0.207606
      7 C                    -0.132617
      8 C                     0.252485
      9 N                    -0.659388
     10 C                     0.406458
     11 C                     0.087327
     12 C                    -0.147534
     13 C                    -0.138832
     14 C                    -0.119625
     15 C                    -0.141267
     16 C                    -0.157073
     17 N                    -0.553137
     18 C                     0.318861
     19 C                     0.240763
     20 C                    -0.181104
     21 C                    -0.140489
     22 C                    -0.149322
     23 C                    -0.166265
     24 C                    -0.160574
     25 C                    -0.209995
     26 H                     0.163129
     27 H                     0.138578
     28 H                     0.156991
     29 H                     0.156200
     30 H                     0.133469
     31 H                     0.130557
     32 H                     0.131622
     33 H                     0.147549
     34 H                     0.137532
     35 H                     0.123629
     36 H                     0.125198
     37 H                     0.136476
     38 H                     0.156089
     39 H                     0.147366
  ----------------------------------------
  Sum of atomic charges =     0.000000

                    Cartesian Multipole Moments
 -----------------------------------------------------------------
    Charge (ESU x 10^10)
                 0.0000
    Dipole Moment (Debye)
         X       2.5528      Y      -0.9180      Z       0.7217
       Tot       2.8072
    Quadrupole Moments (Debye-Ang)
        XX    -148.3737     XY      -2.1231     YY    -126.9591
        XZ      -1.4843     YZ      -3.5654     ZZ    -139.2661

 Total job time:  136.11s(wall), 135.72s(cpu)
        *  Thank you very much for using Q-Chem.  Have a nice day.  *
