 Q-Chem 5.2, Q-Chem, Inc., Pleasanton, CA (2019)
 Q-Chem 5.2.1 for Intel X86 EM64T Linux

User input:
--------------------------------------------------------------
$molecule
0 1
C        -0.08202783270000   -3.59118975980000   -1.16034885200000
C         0.80230812960000   -3.15461509010000   -0.26596694370000
C         1.40205063300000   -1.84789422660000   -0.25923531100000
C         1.24552534430000   -0.79860821180000   -1.12864218450000
C         2.00074640790000    0.34160504410000   -0.79833994620000
C         1.92592434460000    1.61801481850000   -1.57842937220000
C         0.95325100880000    2.61267966120000   -0.92748770460000
C        -0.46752418090000    2.05950223930000   -0.88177433960000
C        -1.45307418660000    3.01472748770000   -0.21322567220000
C        -2.85583757400000    2.41114845220000   -0.11411917420000
C        -2.95943490790000    1.35089202220000    0.98131293890000
C        -4.28394897360000    0.58693620120000    0.96906646320000
C        -4.53045747010000   -0.25900911360000   -0.28405539710000
C        -3.41679761060000   -1.24982436030000   -0.62888983090000
C        -3.15810492020000   -2.27485020040000    0.46838905620000
C         2.75131612400000    0.16541148960000    0.34612596110000
C         3.63566398620000    1.10695439930000    0.97412187370000
C         4.29975425530000    0.89179553820000    2.10707564450000
S         2.51646174520000   -1.42762605300000    1.00592751910000
H        -0.48602664170000   -4.58686593390000   -1.10602680370000
H        -0.42711175500000   -2.97681912450000   -1.97369457570000
H         1.11899111910000   -3.80565782570000    0.53876752050000
H         0.60405834110000   -0.84265197740000   -1.99079868710000
H         1.58350847370000    1.39494884700000   -2.59105939980000
H         2.91533849340000    2.07423456660000   -1.65108246800000
H         0.96639211130000    3.54699936390000   -1.49364734500000
H         1.28810812870000    2.83057964340000    0.08927751750000
H        -0.45348693190000    1.11374728910000   -0.33808129470000
H        -0.80636879990000    1.85273795440000   -1.90045238030000
H        -1.49767754890000    3.94020663520000   -0.79279660430000
H        -1.09478899400000    3.26845428890000    0.78728149370000
H        -3.11378211100000    1.97445975030000   -1.07999900030000
H        -3.57945415130000    3.20300023440000    0.09376838400000
H        -2.85229341800000    1.84152946620000    1.95253766420000
H        -2.13796844990000    0.64085092840000    0.88918976600000
H        -5.10681557610000    1.30040096130000    1.06462677630000
H        -4.31533475350000   -0.06219443120000    1.84648185680000
H        -4.68507777660000    0.40037271640000   -1.14087886490000
H        -5.45991038200000   -0.81535027930000   -0.13614258120000
H        -2.49359725720000   -0.70968641110000   -0.84463311360000
H        -3.70444398450000   -1.77668155290000   -1.54273165450000
H        -2.79234634260000   -1.79537837930000    1.37248887110000
H        -2.40761998550000   -2.99221496040000    0.14219320610000
H        -4.07211197730000   -2.81376077230000    0.70943622630000
H         3.74434045180000    2.05146860040000    0.45732154470000
H         4.20692742020000   -0.03667388700000    2.64608171180000
H         4.95273115050000    1.63484470330000    2.52930789650000
$end

$rem
BASIS = 6-31G*
GUI = 2
METHOD = B3LYP
PRINT_ORBITALS false
MOLDEN_FORMAT false
--------------------------------------------------------------

             Standard Nuclear Orientation (Angstroms)
    I     Atom           X                Y                Z
 ----------------------------------------------------------------
    1      C      -0.0679858644    -3.6166606119     1.1685041460
    2      C      -0.9898368376    -3.1538110384     0.3267633368
    3      C      -1.5448683152    -1.8276482017     0.3488538275
    4      C      -1.3009277042    -0.7810478036     1.2011977741
    5      C      -2.0362501415     0.3827556754     0.9106688288
    6      C      -1.8716403399     1.6587753548     1.6775046372
    7      C      -0.9075222691     2.6176858965     0.9632613028
    8      C       0.4885803159     2.0167620786     0.8348664095
    9      C       1.4631582049     2.9357569206     0.1024950363
   10      C       2.8363699481     2.2848714933    -0.0778173037
   11      C       2.8378559843     1.2177073235    -1.1714379170
   12      C       4.1343971328     0.4095844222    -1.2349549187
   13      C       4.4280194053    -0.4395799963     0.0057747307
   14      C       3.3048210704    -1.3910150545     0.4229806187
   15      C       2.9459522051    -2.4107623119    -0.6507742442
   16      C      -2.8603027666     0.2277610643    -0.1852851948
   17      C      -3.7491337056     1.1962676694    -0.7640144718
   18      C      -4.4875188830     0.9994571042    -1.8534851686
   19      S      -2.7192696185    -1.3747019657    -0.8489757671
   20      H       0.2984670193    -4.6255831658     1.0955347646
   21      H       0.3461236427    -3.0112880558     1.9559702352
   22      H      -1.3763172698    -3.7967604016    -0.4536156155
   23      H      -0.6101956487    -0.8435231508     2.0232194666
   24      H      -1.4761019901     1.4280151630     2.6688299000
   25      H      -2.8390246175     2.1483543883     1.8072556230
   26      H      -0.8550712187     3.5539915600     1.5238354064
   27      H      -1.2959434290     2.8430130581    -0.0326191532
   28      H       0.4099961497     1.0700265224     0.2984263730
   29      H       0.8814676230     1.8024368132     1.8323514171
   30      H       1.5737328192     3.8613297353     0.6730139204
   31      H       1.0535485883     3.1977398324    -0.8759450865
   32      H       3.1376642012     1.8432873177     0.8731724090
   33      H       3.5721140307     3.0511097042    -0.3336044845
   34      H       2.6884821356     1.7081057631    -2.1371908311
   35      H       2.0002121845     0.5361060509    -1.0257507684
   36      H       4.9733437497     1.0945475612    -1.3841770849
   37      H       4.0908070723    -0.2434549508    -2.1089417046
   38      H       4.6562632433     0.2173584539     0.8478999677
   39      H       5.3276762124    -1.0274780125    -0.1948990374
   40      H       2.4149730807    -0.8192724790     0.6910739668
   41      H       3.6295764914    -1.9239083677     1.3207469856
   42      H       2.5422787880    -1.9225580335    -1.5338220315
   43      H       2.1930677377    -3.1012158483    -0.2756976366
   44      H       3.8251356911    -2.9810612734    -0.9435757734
   45      H      -3.7946408692     2.1458012479    -0.2469890260
   46      H      -4.4586334244     0.0664117956    -2.3918084152
   47      H      -5.1396927340     1.7625403161    -2.2396900907
 ----------------------------------------------------------------

    9   -1100.9336906792      2.73e-06  Convergence criterion met
 Total energy in the final basis set =    -1100.9336906792

                    Orbital Energies (a.u.)
 --------------------------------------------------------------

 Alpha MOs
 -- Occupied --
-88.9007 -10.2176 -10.2127 -10.1997 -10.1961 -10.1936 -10.1880 -10.1851
-10.1835 -10.1795 -10.1793 -10.1710 -10.1708 -10.1691 -10.1689 -10.1676
-10.1674 -10.1670 -10.1595  -7.9626  -5.9266  -5.9230  -5.9194  -0.8904
 -0.8175  -0.8082  -0.7982  -0.7781  -0.7681  -0.7433  -0.7189  -0.7028
 -0.6813  -0.6532  -0.6241  -0.6144  -0.5959  -0.5756  -0.5698  -0.5377
 -0.5351  -0.5241  -0.4902  -0.4722  -0.4660  -0.4609  -0.4556  -0.4535
 -0.4368  -0.4295  -0.4205  -0.4150  -0.4116  -0.3952  -0.3929  -0.3839
 -0.3831  -0.3773  -0.3677  -0.3624  -0.3597  -0.3511  -0.3507  -0.3410
 -0.3346  -0.3275  -0.3254  -0.3221  -0.3210  -0.3094  -0.3023  -0.2999
 -0.2955  -0.2687  -0.2451  -0.1959

          Ground-State Mulliken Net Atomic Charges

     Atom                 Charge (a.u.)
  ----------------------------------------
      1 C                    -0.342092
      2 C                    -0.088496
      3 C                    -0.125759
      4 C                    -0.164352
      5 C                     0.152041
      6 C                    -0.347549
      7 C                    -0.252929
      8 C                    -0.269547
      9 C                    -0.254162
     10 C                    -0.256561
     11 C                    -0.267155
     12 C                    -0.258767
     13 C                    -0.251808
     14 C                    -0.258870
     15 C                    -0.452122
     16 C                    -0.201841
     17 C                    -0.055406
     18 C                    -0.377414
     19 S                     0.232611
     20 H                     0.148678
     21 H                     0.146709
     22 H                     0.138784
     23 H                     0.135393
     24 H                     0.142851
     25 H                     0.145348
     26 H                     0.130688
     27 H                     0.140705
     28 H                     0.159378
     29 H                     0.122540
     30 H                     0.124443
     31 H                     0.128864
     32 H                     0.132112
     33 H                     0.126154
     34 H                     0.127293
     35 H                     0.144687
     36 H                     0.124901
     37 H                     0.131117
     38 H                     0.128327
     39 H                     0.125111
     40 H                     0.136820
     41 H                     0.124800
     42 H                     0.147887
     43 H                     0.151666
     44 H                     0.135900
     45 H                     0.138483
     46 H                     0.155623
     47 H                     0.144916
  ----------------------------------------
  Sum of atomic charges =     0.000000

                    Cartesian Multipole Moments
 -----------------------------------------------------------------
    Charge (ESU x 10^10)
                -0.0000
    Dipole Moment (Debye)
         X       0.2477      Y       0.5913      Z       0.7269
       Tot       0.9692
    Quadrupole Moments (Debye-Ang)
        XX    -129.3559     XY      -4.1133     YY    -121.3241
        XZ       2.6175     YZ       1.0189     ZZ    -124.5246

 Total job time:  105.15s(wall), 104.83s(cpu)
        *  Thank you very much for using Q-Chem.  Have a nice day.  *
