 Q-Chem 5.2, Q-Chem, Inc., Pleasanton, CA (2019)
 Q-Chem 5.2.1 for Intel X86 EM64T Linux

User input:
--------------------------------------------------------------
$molecule
0 1
C        -4.11499945810000   -0.74737706640000    0.55363285350000
C        -2.85306221260000   -0.91044309280000    0.17676042430000
C        -1.87616648860000    0.15336204570000   -0.02969240760000
C        -2.21132221960000    1.50654418380000   -0.08378035210000
C        -1.24743113710000    2.47123484530000   -0.30642231000000
C         0.07811363750000    2.11442767990000   -0.46643184360000
C         0.46547803900000    0.77693496480000   -0.39600228350000
C         1.87560960020000    0.42665427740000   -0.55613215210000
C         2.52553592000000   -0.51228805920000    0.11250906800000
F         2.05783149630000   -1.28314446570000    1.07832892790000
F         3.81661878030000   -0.77514929960000   -0.07348564580000
C        -0.52930818080000   -0.17704370350000   -0.19804147090000
F        -0.18331022320000   -1.48040075940000   -0.20940694790000
H        -4.76759640160000   -1.59245506880000    0.68727789540000
H        -4.54703043790000    0.21842095020000    0.75291176330000
H        -2.47432784990000   -1.91093719500000    0.01608678290000
H        -3.24226732740000    1.79999313130000    0.03001974020000
H        -1.53124596140000    3.51124526980000   -0.35915232070000
H         0.83034015710000    2.86941627960000   -0.63613226580000
H         2.45187967040000    1.00702433280000   -1.26061409610000
$end

$rem
BASIS = 6-31G*
GUI = 2
METHOD = B3LYP
PRINT_ORBITALS false
MOLDEN_FORMAT false
--------------------------------------------------------------

             Standard Nuclear Orientation (Angstroms)
    I     Atom           X                Y                Z
 ----------------------------------------------------------------
    1      C       3.8799048499     1.4068005925     0.1991038280
    2      C       2.6030357826     1.3181342479    -0.1513995711
    3      C       1.7739406725     0.1202335990    -0.0722494994
    4      C       2.2854755261    -1.1558316757     0.1651242076
    5      C       1.4558862906    -2.2601049438     0.2056924512
    6      C       0.0928203582    -2.1203069432     0.0254394722
    7      C      -0.4681705540    -0.8622760829    -0.1903053225
    8      C      -1.9141981925    -0.7395319864    -0.3656538610
    9      C      -2.6751526418     0.2370672867     0.1015722082
   10      F      -2.3025448655     1.2609922539     0.8489115794
   11      F      -3.9918799799     0.2846172098    -0.0843125392
   12      C       0.3931642284     0.2299396688    -0.2537919384
   13      F      -0.1232765002     1.4415901139    -0.5432319992
   14      H       4.4158303185     2.3358178314     0.1118601468
   15      H       4.4389641167     0.5748071994     0.5920012578
   16      H       2.0926450928     2.1991923183    -0.5167517374
   17      H       3.3475952496    -1.2823790665     0.2985333977
   18      H       1.8748904442    -3.2400682667     0.3761635530
   19      H      -0.5542628272    -2.9832276099     0.0615231250
   20      H      -2.4165882043    -1.5336811811    -0.8968249607
 ----------------------------------------------------------------

    9    -684.7457413976      4.22e-06  Convergence criterion met
 Total energy in the final basis set =     -684.7457413976

                    Orbital Energies (a.u.)
 --------------------------------------------------------------

 Alpha MOs
 -- Occupied --
-24.7388 -24.7340 -24.7119 -10.3578 -10.2744 -10.2133 -10.2056 -10.2044
-10.1991 -10.1970 -10.1942 -10.1940 -10.1843  -1.2843  -1.2260  -1.2214
 -0.8782  -0.8211  -0.7888  -0.7450  -0.7342  -0.6514  -0.6375  -0.6122
 -0.5794  -0.5637  -0.5485  -0.5275  -0.5174  -0.4968  -0.4800  -0.4661
 -0.4574  -0.4432  -0.4379  -0.4364  -0.4214  -0.4138  -0.4030  -0.3900
 -0.3722  -0.3579  -0.3464  -0.3160  -0.2823  -0.2331  -0.2270

          Ground-State Mulliken Net Atomic Charges

     Atom                 Charge (a.u.)
  ----------------------------------------
      1 C                    -0.349287
      2 C                    -0.106708
      3 C                     0.103171
      4 C                    -0.186595
      5 C                    -0.125863
      6 C                    -0.183911
      7 C                     0.108120
      8 C                    -0.321231
      9 C                     0.571148
     10 F                    -0.228355
     11 F                    -0.246887
     12 C                     0.239249
     13 F                    -0.284910
     14 H                     0.148743
     15 H                     0.143010
     16 H                     0.146800
     17 H                     0.134563
     18 H                     0.133514
     19 H                     0.136246
     20 H                     0.169184
  ----------------------------------------
  Sum of atomic charges =     0.000000

                    Cartesian Multipole Moments
 -----------------------------------------------------------------
    Charge (ESU x 10^10)
                 0.0000
    Dipole Moment (Debye)
         X       1.1194      Y      -1.7174      Z      -0.0821
       Tot       2.0516
    Quadrupole Moments (Debye-Ang)
        XX     -68.0905     XY       2.2619     YY     -66.3886
        XZ       1.9442     YZ      -0.5413     ZZ     -73.8650

 Total job time:  31.16s(wall), 30.07s(cpu)
        *  Thank you very much for using Q-Chem.  Have a nice day.  *
