 Q-Chem 5.2, Q-Chem, Inc., Pleasanton, CA (2019)
 Q-Chem 5.2.1 for Intel X86 EM64T Linux

User input:
--------------------------------------------------------------
$molecule
0 1
C         5.90904912720000    0.55793807490000    0.00340716290000
C         4.86212994900000   -0.25961586380000   -0.00727057170000
C         3.45467304020000    0.11469412150000   -0.00502126610000
C         3.02530394230000    1.44503613160000   -0.00779723510000
C         1.68317009130000    1.77157499340000   -0.00607456640000
C         0.74340243040000    0.75202945160000   -0.00145974390000
C         1.15744686090000   -0.58893404260000    0.00142307280000
C         2.49449336360000   -0.90552220480000   -0.00063873450000
C        -0.03685583540000   -1.51749285990000    0.00594559110000
C        -0.05682122170000   -2.38552580910000    1.26782047750000
C        -0.05928763550000   -2.39514343250000   -1.24913296770000
C        -1.18467701750000   -0.53204652990000    0.00386427830000
C        -2.53551871080000   -0.78334757170000    0.00580739800000
C        -3.44503861040000    0.28228226390000    0.00313228610000
C        -4.86901466110000   -0.02323914730000    0.00403186270000
C        -5.87493908460000    0.84405021830000   -0.01821634170000
C        -2.95159937220000    1.59021187180000    0.00021194880000
C        -1.59519374810000    1.85120634550000   -0.00127003410000
C        -0.70602585540000    0.78723475750000    0.00011108390000
H         6.91570307290000    0.17620157340000    0.00083823670000
H         5.81446474090000    1.63002935740000    0.01570799220000
H         5.03974029990000   -1.32882396190000   -0.01773413730000
H         3.75651415920000    2.23844230580000   -0.01236218640000
H         1.37278171670000    2.80616810190000   -0.00865778870000
H         2.81713826790000   -1.93768031600000    0.00132408250000
H         0.81176168640000   -3.03962006060000    1.29055769600000
H        -0.95485561600000   -2.99855449300000    1.29078305920000
H        -0.04210068950000   -1.75735783750000    2.15610703870000
H         0.80786584860000   -3.05128046140000   -1.26715280910000
H        -0.04359909020000   -1.77391162440000   -2.14226433980000
H        -0.95861422300000   -3.00643882840000   -1.26700299140000
H        -2.90789176290000   -1.79862269690000    0.00867651080000
H        -5.09837523880000   -1.08242104080000    0.02358848630000
H        -5.72832504070000    1.91010928710000   -0.04026875950000
H        -6.89896105510000    0.51170823040000   -0.01561942460000
H        -3.64344196560000    2.41818396810000    0.00016873290000
H        -1.23494777660000    2.86951338220000   -0.00326745520000
$end

$rem
BASIS = 6-31G*
GUI = 2
METHOD = B3LYP
PRINT_ORBITALS false
MOLDEN_FORMAT false
--------------------------------------------------------------

             Standard Nuclear Orientation (Angstroms)
    I     Atom           X                Y                Z
 ----------------------------------------------------------------
    1      C       5.8937619223    -0.7283644794    -0.0051692467
    2      C       4.8669987651     0.1143258030     0.0081997312
    3      C       3.4508694694    -0.2256938748     0.0046767815
    4      C       2.9893286782    -1.5452213534     0.0030265112
    5      C       1.6396629165    -1.8390719225     0.0001902331
    6      C       0.7249252023    -0.7970013801    -0.0010602869
    7      C       1.1714037219     0.5335168025     0.0005180633
    8      C       2.5157420176     0.8175420457     0.0036603295
    9      C      -0.0000029815     1.4908072742    -0.0009478266
   10      C       0.0012410098     2.3632518713    -1.2599342936
   11      C      -0.0012493588     2.3645739091     1.2570371559
   12      C      -1.1714106582     0.5335169084    -0.0021634721
   13      C      -2.5157529083     0.8175448794    -0.0033019403
   14      C      -3.4508762953    -0.2256924006    -0.0041847650
   15      C      -4.8670150938     0.1143117632    -0.0041012894
   16      C      -5.8937012976    -0.7283690319     0.0152452498
   17      C      -2.9893366432    -1.5452187654    -0.0055959765
   18      C      -1.6396673917    -1.8390708093    -0.0049507029
   19      C      -0.7249304043    -0.7970014641    -0.0027798442
   20      H       6.9093866625    -0.3711908213    -0.0013108305
   21      H       5.7731785054    -1.7977966951    -0.0210314719
   22      H       5.0705138647     1.1788660801     0.0222169553
   23      H       3.7010606264    -2.3561568756     0.0049733681
   24      H       1.3042479730    -2.8658272950    -0.0006682700
   25      H       2.8633506976     1.8415635274     0.0051314196
   26      H       0.8854502919     2.9961375882    -1.2804806788
   27      H      -0.8816432504     2.9979752998    -1.2808812063
   28      H       0.0007976928     1.7378629325    -2.1503011776
   29      H       0.8815763344     2.9994012404     1.2772543566
   30      H      -0.0007392822     1.7401838662     2.1481014364
   31      H      -0.8854717004     2.9974604380     1.2769168405
   32      H      -2.8633671138     1.8415652025    -0.0028084681
   33      H      -5.0705913011     1.1788089705    -0.0201463208
   34      H      -5.7730144535    -1.7977406991     0.0337614106
   35      H      -6.9093525830    -0.3712568574     0.0137292297
   36      H      -3.7010767749    -2.3561457349    -0.0083168657
   37      H      -1.3042502114    -2.8658248178    -0.0063261946
 ----------------------------------------------------------------

    8    -734.8477706663      8.78e-06  Convergence criterion met
 Total energy in the final basis set =     -734.8477706663

                    Orbital Energies (a.u.)
 --------------------------------------------------------------

 Alpha MOs
 -- Occupied --
-10.2013 -10.1927 -10.1927 -10.1878 -10.1878 -10.1874 -10.1871 -10.1865
-10.1864 -10.1849 -10.1849 -10.1846 -10.1846 -10.1839 -10.1839 -10.1771
-10.1771 -10.1768 -10.1768  -0.8945  -0.8545  -0.8264  -0.7954  -0.7797
 -0.7456  -0.7449  -0.7346  -0.7002  -0.6907  -0.6461  -0.6352  -0.6091
 -0.5828  -0.5797  -0.5537  -0.5282  -0.5121  -0.4912  -0.4872  -0.4627
 -0.4518  -0.4447  -0.4374  -0.4352  -0.4343  -0.4297  -0.4135  -0.4123
 -0.3959  -0.3841  -0.3831  -0.3793  -0.3704  -0.3644  -0.3562  -0.3459
 -0.3416  -0.3386  -0.3173  -0.3169  -0.3164  -0.2845  -0.2494  -0.2455
 -0.2390  -0.1958

          Ground-State Mulliken Net Atomic Charges

     Atom                 Charge (a.u.)
  ----------------------------------------
      1 C                    -0.357207
      2 C                    -0.111986
      3 C                     0.188016
      4 C                    -0.197742
      5 C                    -0.192264
      6 C                     0.085976
      7 C                     0.111455
      8 C                    -0.286785
      9 C                    -0.073579
     10 C                    -0.434986
     11 C                    -0.435097
     12 C                     0.111455
     13 C                    -0.286777
     14 C                     0.188008
     15 C                    -0.111998
     16 C                    -0.357197
     17 C                    -0.197743
     18 C                    -0.192265
     19 C                     0.085977
     20 H                     0.142769
     21 H                     0.141714
     22 H                     0.124284
     23 H                     0.124346
     24 H                     0.128687
     25 H                     0.122243
     26 H                     0.145049
     27 H                     0.145008
     28 H                     0.158262
     29 H                     0.145006
     30 H                     0.158274
     31 H                     0.145049
     32 H                     0.122242
     33 H                     0.124288
     34 H                     0.141715
     35 H                     0.142770
     36 H                     0.124349
     37 H                     0.128687
  ----------------------------------------
  Sum of atomic charges =     0.000000

                    Cartesian Multipole Moments
 -----------------------------------------------------------------
    Charge (ESU x 10^10)
                 0.0000
    Dipole Moment (Debye)
         X      -0.0001      Y       0.4223      Z      -0.0002
       Tot       0.4223
    Quadrupole Moments (Debye-Ang)
        XX    -105.6293     XY      -0.0001     YY    -100.6262
        XZ       0.0037     YZ       0.0016     ZZ    -117.5608

 Total job time:  77.20s(wall), 76.98s(cpu)
        *  Thank you very much for using Q-Chem.  Have a nice day.  *
