 Q-Chem 5.2, Q-Chem, Inc., Pleasanton, CA (2019)
 Q-Chem 5.2.1 for Intel X86 EM64T Linux

User input:
--------------------------------------------------------------
$molecule
0 1
C        -3.96285223390000    1.05216452380000   -0.10710116810000
C        -3.25910341190000   -0.06408504870000    0.04781348500000
C        -1.81084534780000   -0.19652831730000    0.04322885730000
C        -1.23818809090000   -1.45674577690000    0.22718367960000
C         0.12684739550000   -1.63470194210000    0.20349447510000
C         0.99699389980000   -0.55594856810000    0.02101639440000
N         2.36014802630000   -0.72956682750000   -0.00671911090000
C         2.96635460780000   -2.02683018500000   -0.17486068100000
C         0.43768114040000    0.73355498150000   -0.12814782010000
C         1.24230255440000    1.94568317190000   -0.28552465840000
C         2.37666794940000    2.23217653290000    0.34293274100000
C        -0.94271369910000    0.87662032450000   -0.14131511100000
H        -5.03926438810000    1.04226516310000   -0.08842516090000
H        -3.50510481830000    2.01481880010000   -0.25702086740000
H        -3.79093975890000   -0.99702210280000    0.19624804520000
H        -1.87930742760000   -2.31448176770000    0.37661859560000
H         0.52678535780000   -2.62832637830000    0.32934993280000
H         2.85726458100000    0.03398064200000   -0.44248129500000
H         2.75036342840000   -2.65372144130000    0.69184395210000
H         4.04504850900000   -1.89954409880000   -0.24028481440000
H         2.61846198090000   -2.54621266490000   -1.07698846750000
H         0.81209525060000    2.68633645350000   -0.95071153940000
H         2.81569129650000    1.57332532370000    1.07309500480000
H         2.88319329470000    3.16958854400000    0.18241043300000
H        -1.34578756960000    1.86867937570000   -0.28087048530000
$end

$rem
BASIS = 6-31G*
GUI = 2
METHOD = B3LYP
PRINT_ORBITALS false
MOLDEN_FORMAT false
--------------------------------------------------------------

             Standard Nuclear Orientation (Angstroms)
    I     Atom           X                Y                Z
 ----------------------------------------------------------------
    1      C       4.0863052794    -0.5454146428    -0.0859576716
    2      C       3.2467384653     0.4765117031     0.0408026157
    3      C       1.7933719153     0.4243676699     0.0362937880
    4      C       1.0655855320     1.6064271212     0.1879057600
    5      C      -0.3109738802     1.6094363619     0.1628741151
    6      C      -1.0373562779     0.4246946988     0.0114877385
    7      N      -2.4114965177     0.4235320623    -0.0174774209
    8      C      -3.1769326061     1.6286256061    -0.2187418516
    9      C      -0.3191303718    -0.7871599400    -0.1045295548
   10      C      -0.9636497691    -2.0951853641    -0.2274200564
   11      C      -2.0531797362    -2.5060083364     0.4113059680
   12      C       1.0682803523    -0.7546167764    -0.1173126695
   13      H       5.1527825149    -0.3988226451    -0.0702411632
   14      H       3.7542720866    -1.5619494524    -0.2089324994
   15      H       3.6560284256     1.4729190359     0.1629026613
   16      H       1.5928000216     2.5421279579     0.3127442723
   17      H      -0.8336218387     2.5474512898     0.2631068272
   18      H      -2.8075331510    -0.4082286586    -0.4314186928
   19      H      -3.0428469207     2.3008583978     0.6303434565
   20      H      -4.2307669398     1.3640901206    -0.2780442263
   21      H      -2.8967846501     2.1634638644    -1.1353045301
   22      H      -0.4425170637    -2.7930040935    -0.8736312593
   23      H      -2.5727587036    -1.8886754477     1.1246790455
   24      H      -2.4367848052    -3.5039731296     0.2771790206
   25      H       1.5938532310    -1.6910502837    -0.2312900538
 ----------------------------------------------------------------

    8    -481.7053430245      9.45e-06  Convergence criterion met
 Total energy in the final basis set =     -481.7053430245

                    Orbital Energies (a.u.)
 --------------------------------------------------------------

 Alpha MOs
 -- Occupied --
-14.3430 -10.2233 -10.2167 -10.1921 -10.1858 -10.1797 -10.1788 -10.1785
-10.1781 -10.1761 -10.1742 -10.1648  -0.9392  -0.8495  -0.7965  -0.7703
 -0.7272  -0.7228  -0.6820  -0.6190  -0.6052  -0.5794  -0.5390  -0.5169
 -0.5024  -0.4679  -0.4539  -0.4479  -0.4384  -0.4322  -0.4229  -0.3990
 -0.3948  -0.3819  -0.3694  -0.3619  -0.3402  -0.3269  -0.3150  -0.2896
 -0.2541  -0.2292  -0.1816

          Ground-State Mulliken Net Atomic Charges

     Atom                 Charge (a.u.)
  ----------------------------------------
      1 C                    -0.362500
      2 C                    -0.115615
      3 C                     0.187795
      4 C                    -0.209387
      5 C                    -0.183459
      6 C                     0.304395
      7 N                    -0.651773
      8 C                    -0.303337
      9 C                     0.123751
     10 C                    -0.143320
     11 C                    -0.363711
     12 C                    -0.274060
     13 H                     0.136173
     14 H                     0.135015
     15 H                     0.119204
     16 H                     0.123388
     17 H                     0.122187
     18 H                     0.319784
     19 H                     0.165647
     20 H                     0.156652
     21 H                     0.149433
     22 H                     0.136695
     23 H                     0.161992
     24 H                     0.141576
     25 H                     0.123477
  ----------------------------------------
  Sum of atomic charges =     0.000000

                    Cartesian Multipole Moments
 -----------------------------------------------------------------
    Charge (ESU x 10^10)
                 0.0000
    Dipole Moment (Debye)
         X      -2.1431      Y       0.3029      Z      -0.6694
       Tot       2.2655
    Quadrupole Moments (Debye-Ang)
        XX     -64.3577     XY      -0.6845     YY     -64.9718
        XZ       1.1999     YZ       1.7818     ZZ     -75.5634

 Total job time:  27.36s(wall), 27.22s(cpu)
        *  Thank you very much for using Q-Chem.  Have a nice day.  *
