 Q-Chem 5.2, Q-Chem, Inc., Pleasanton, CA (2019)
 Q-Chem 5.2.1 for Intel X86 EM64T Linux

User input:
--------------------------------------------------------------
$molecule
0 1
C         3.74541857590000    0.59762905540000   -0.00550323300000
C         2.83371651360000   -0.36817253120000   -0.00079682800000
C         1.39003023860000   -0.19493699430000    0.00109052900000
C         0.55281986500000   -1.31494736500000    0.00207139740000
C        -0.81649224730000   -1.15500988390000    0.00247779160000
C        -1.34824982630000    0.13818343790000    0.00186662610000
C        -2.77405802620000    0.43708981020000    0.00092472690000
C        -3.76697498050000   -0.44426650160000   -0.00542267460000
N        -0.55166443370000    1.21061681690000    0.00234868510000
C         0.75139170250000    1.05043156010000    0.00199561660000
H         4.79786053000000    0.37141660800000   -0.00695269620000
H         3.48671511030000    1.64229508950000   -0.00814896410000
H         3.16073490990000   -1.40176506090000    0.00123369190000
H         0.98529730100000   -2.30686379870000    0.00209092020000
H        -1.46498883740000   -2.01669373240000    0.00336306300000
H        -2.98575167150000    1.49776989160000    0.00514138820000
H        -3.60435487580000   -1.50892296560000   -0.01051169250000
H        -4.79555400400000   -0.12663668830000   -0.00614191520000
H         1.32244536620000    1.96929387210000    0.00273154870000
$end

$rem
BASIS = 6-31G*
GUI = 2
METHOD = B3LYP
PRINT_ORBITALS false
MOLDEN_FORMAT false
--------------------------------------------------------------

             Standard Nuclear Orientation (Angstroms)
    I     Atom           X                Y                Z
 ----------------------------------------------------------------
    1      C       3.7648903130    -0.4233831623     0.0049415045
    2      C       2.8060837889     0.4956730678     0.0003370925
    3      C       1.3728525897     0.2505413420    -0.0013777907
    4      C       0.4807424477     1.3273347794    -0.0022665012
    5      C      -0.8788714952     1.0991995320    -0.0025093351
    6      C      -1.3453699478    -0.2189408974    -0.0018267227
    7      C      -2.7544677714    -0.5886935366    -0.0007136623
    8      C      -3.7901684422     0.2419662677     0.0057459159
    9      N      -0.4962107279    -1.2502459770    -0.0023964241
   10      C       0.7972175634    -1.0251727628    -0.0021990533
   11      H       4.8047193215    -0.1448833929     0.0062645912
   12      H       3.5586913743    -1.4796674063     0.0076246714
   13      H       3.0810655773     1.5443099822    -0.0017389006
   14      H       0.8631335987     2.3396153463    -0.0023437462
   15      H      -1.5695999524     1.9274152055    -0.0033231839
   16      H      -2.9129164785    -1.6586237728    -0.0048983643
   17      H      -3.6809305353     1.3134167006     0.0108087737
   18      H      -4.8015977362    -0.1266447673     0.0065892894
   19      H       1.4134556498    -1.9143638341    -0.0029968476
 ----------------------------------------------------------------

    9    -403.0843598805      2.65e-06  Convergence criterion met
 Total energy in the final basis set =     -403.0843598805

                    Orbital Energies (a.u.)
 --------------------------------------------------------------

 Alpha MOs
 -- Occupied --
-14.3235 -10.2250 -10.2184 -10.2049 -10.2029 -10.1977 -10.1963 -10.1875
-10.1866 -10.1843  -0.9491  -0.8275  -0.8014  -0.7719  -0.7268  -0.6569
 -0.6287  -0.5848  -0.5687  -0.5093  -0.5020  -0.4652  -0.4521  -0.4467
 -0.4167  -0.4110  -0.4097  -0.3766  -0.3639  -0.3547  -0.3325  -0.2878
 -0.2735  -0.2505  -0.2193

          Ground-State Mulliken Net Atomic Charges

     Atom                 Charge (a.u.)
  ----------------------------------------
      1 C                    -0.348208
      2 C                    -0.118945
      3 C                     0.155107
      4 C                    -0.164734
      5 C                    -0.165959
      6 C                     0.293663
      7 C                    -0.086359
      8 C                    -0.347967
      9 N                    -0.484577
     10 C                    -0.007774
     11 H                     0.148201
     12 H                     0.149988
     13 H                     0.129550
     14 H                     0.138835
     15 H                     0.134410
     16 H                     0.145983
     17 H                     0.142030
     18 H                     0.149586
     19 H                     0.137171
  ----------------------------------------
  Sum of atomic charges =     0.000000

                    Cartesian Multipole Moments
 -----------------------------------------------------------------
    Charge (ESU x 10^10)
                 0.0000
    Dipole Moment (Debye)
         X       0.6067      Y       1.7897      Z       0.0020
       Tot       1.8898
    Quadrupole Moments (Debye-Ang)
        XX     -50.4197     XY      -1.8436     YY     -55.3702
        XZ      -0.0021     YZ      -0.0008     ZZ     -62.2946

 Total job time:  17.67s(wall), 17.60s(cpu)
        *  Thank you very much for using Q-Chem.  Have a nice day.  *
