 Q-Chem 5.2, Q-Chem, Inc., Pleasanton, CA (2019)
 Q-Chem 5.2.1 for Intel X86 EM64T Linux

User input:
--------------------------------------------------------------
$molecule
0 1
C         3.89475285290000   -0.23869384370000   -0.12556988710000
C         2.80532767940000    0.49127515310000    0.07827213550000
C         1.42938436470000    0.01199958250000    0.04600033080000
C         1.08606851730000   -1.34052644860000   -0.01522009540000
N        -0.16220344170000   -1.76805855680000   -0.04425123650000
C        -1.12379679990000   -0.88042949470000   -0.01352950220000
F        -2.36792874190000   -1.38343995420000   -0.05275326370000
C        -0.94820801850000    0.50833223240000    0.05484992230000
C        -2.10054519200000    1.39896486420000    0.09291017950000
C        -2.06611811450000    2.71582791900000   -0.06786833820000
C         0.37823521930000    0.92946126530000    0.08993556840000
H         4.87606258020000    0.20170769670000   -0.08684127760000
H         3.85691420210000   -1.29181342290000   -0.34381441900000
H         2.90744839110000    1.55126531520000    0.27745918640000
H         1.83428420970000   -2.11888880630000   -0.02966406030000
H        -3.04942292810000    0.90317346930000    0.24915001860000
H        -1.15379430470000    3.25802272580000   -0.25026709840000
H        -2.96601535180000    3.30448840740000   -0.03133429900000
H         0.60064498370000    1.98420488470000    0.15889767280000
$end

$rem
BASIS = 6-31G*
GUI = 2
METHOD = B3LYP
PRINT_ORBITALS false
MOLDEN_FORMAT false
--------------------------------------------------------------

             Standard Nuclear Orientation (Angstroms)
    I     Atom           X                Y                Z
 ----------------------------------------------------------------
    1      C       3.8209873863     0.4543974966    -0.1081173741
    2      C       2.6089382962     0.9611852379     0.0799164086
    3      C       1.3529614902     0.2224929515     0.0512368679
    4      C       1.2801106546    -1.1718036476     0.0116120541
    5      N       0.1392554147    -1.8348181287    -0.0142822250
    6      C      -0.9770114177    -1.1512408778    -0.0015753707
    7      F      -2.0990364079    -1.8876312817    -0.0363806771
    8      C      -1.0757758381     0.2460170286     0.0440561208
    9      C      -2.3797604198     0.8954820413     0.0634323253
   10      C      -2.6014951910     2.1910906901    -0.1193111587
   11      C       0.1429596942     0.9180826437     0.0763646240
   12      H       4.6974311680     1.0781583254    -0.0736075369
   13      H       3.9904395532    -0.5892232340    -0.3087788330
   14      H       2.5013196460     2.0237701696     0.2616160339
   15      H       2.1657012680    -1.7895507531     0.0126558588
   16      H      -3.2148606369     0.2268074395     0.2248970493
   17      H      -1.8111190007     2.8977349335    -0.3078281111
   18      H      -3.5990446682     2.5935861710    -0.0955756868
   19      H       0.1551845089     1.9969039991     0.1283359117
 ----------------------------------------------------------------

    9    -502.3227441554      2.73e-06  Convergence criterion met
 Total energy in the final basis set =     -502.3227441554

                    Orbital Energies (a.u.)
 --------------------------------------------------------------

 Alpha MOs
 -- Occupied --
-24.7109 -14.3391 -10.3037 -10.2325 -10.2166 -10.2149 -10.2105 -10.2027
-10.2020 -10.1920 -10.1906  -1.2276  -0.9641  -0.8436  -0.8193  -0.7608
 -0.7421  -0.6710  -0.6438  -0.6006  -0.5620  -0.5559  -0.5326  -0.4867
 -0.4772  -0.4727  -0.4516  -0.4400  -0.4291  -0.4036  -0.3970  -0.3859
 -0.3797  -0.3603  -0.3303  -0.3211  -0.2748  -0.2562  -0.2292

          Ground-State Mulliken Net Atomic Charges

     Atom                 Charge (a.u.)
  ----------------------------------------
      1 C                    -0.349636
      2 C                    -0.116367
      3 C                     0.156839
      4 C                    -0.014939
      5 N                    -0.446680
      6 C                     0.448492
      7 F                    -0.263629
      8 C                     0.086104
      9 C                    -0.113217
     10 C                    -0.344874
     11 C                    -0.218295
     12 H                     0.150077
     13 H                     0.149668
     14 H                     0.132082
     15 H                     0.150096
     16 H                     0.151889
     17 H                     0.144102
     18 H                     0.153138
     19 H                     0.145150
  ----------------------------------------
  Sum of atomic charges =     0.000000

                    Cartesian Multipole Moments
 -----------------------------------------------------------------
    Charge (ESU x 10^10)
                 0.0000
    Dipole Moment (Debye)
         X       1.0391      Y       2.7763      Z       0.0842
       Tot       2.9656
    Quadrupole Moments (Debye-Ang)
        XX     -55.8464     XY      -2.9897     YY     -63.6468
        XZ      -0.4811     YZ       0.0226     ZZ     -65.4953

 Total job time:  20.98s(wall), 20.66s(cpu)
        *  Thank you very much for using Q-Chem.  Have a nice day.  *
