 Q-Chem 5.2, Q-Chem, Inc., Pleasanton, CA (2019)
 Q-Chem 5.2.1 for Intel X86 EM64T Linux

User input:
--------------------------------------------------------------
$molecule
0 1
C        -3.76812032030000   -0.04267954600000    0.31309747660000
C        -2.91584070360000    0.80932470420000   -0.24202354980000
C        -1.46272588020000    0.75242432300000   -0.14247269920000
C        -0.74116551300000    1.93886337950000   -0.10080072940000
C         0.63869935140000    1.96625264880000    0.04877443750000
C         1.39980802530000    0.80459484390000    0.11443022930000
C         2.85033807060000    0.89391676180000    0.22464242340000
C         3.73420422020000    0.04197792550000   -0.28195284950000
C         0.68480357020000   -0.39885515320000    0.05815252060000
N         1.13252488190000   -1.68575433320000    0.12370731870000
C         0.06909053970000   -2.53660448830000    0.02664437180000
C        -1.08111117570000   -1.82303306460000   -0.10382403570000
C        -0.72726372010000   -0.44419952750000   -0.06603746200000
H        -4.83339084920000    0.08176198580000    0.21284343970000
H        -3.43816468920000   -0.87556426120000    0.90877407270000
H        -3.30042233230000    1.66785596910000   -0.78083988450000
H        -1.27611877250000    2.87642112260000   -0.16034123250000
H         1.14318879080000    2.92116408510000    0.09112771050000
H         3.20982358300000    1.77704473490000    0.73990359710000
H         3.44677537540000   -0.81379987290000   -0.86986497210000
H         4.79344733340000    0.19883340990000   -0.16697098840000
H         2.08581005310000   -1.95691031130000    0.29119596870000
H         0.21470655950000   -3.59989417410000    0.05171640400000
H        -2.06254335430000   -2.23079727750000   -0.23284110470000
$end

$rem
BASIS = 6-31G*
GUI = 2
METHOD = B3LYP
PRINT_ORBITALS false
MOLDEN_FORMAT false
--------------------------------------------------------------

             Standard Nuclear Orientation (Angstroms)
    I     Atom           X                Y                Z
 ----------------------------------------------------------------
    1      C       3.7694627984    -0.0429830245    -0.2952883885
    2      C       2.9139915158     0.8143446534     0.2465688607
    3      C       1.4613853652     0.7550583523     0.1411590832
    4      C       0.7390247671     1.9403237940     0.0831543392
    5      C      -0.6401787663     1.9648343825    -0.0728802443
    6      C      -1.4000118548     0.8018471172    -0.1290963490
    7      C      -2.8501080524     0.8886586584    -0.2467709816
    8      C      -3.7355200851     0.0415838092     0.2652521173
    9      C      -0.6842582639    -0.4002726956    -0.0563282273
   10      N      -1.1306027294    -1.6882143814    -0.1096586707
   11      C      -0.0669010695    -2.5369962173     0.0015527315
   12      C       1.0821062683    -1.8210065175     0.1292674743
   13      C       0.7272761119    -0.4429891248     0.0746653178
   14      H       4.8341689241     0.0835038148    -0.1916553254
   15      H       3.4428767351    -0.8826896392    -0.8831936692
   16      H       3.2954361967     1.6791166146     0.7775786677
   17      H       1.2729200023     2.8789564813     0.1347211819
   18      H      -1.1452735915     2.9187715579    -0.1280375492
   19      H      -3.2080220975     1.7657214595    -0.7733612463
   20      H      -3.4500102920    -0.8073919059     0.8638638764
   21      H      -4.7943686503     0.1962193692     0.1438107583
   22      H      -2.0829005465    -1.9620499774    -0.2783997854
   23      H      -0.2115121164    -3.6006268096    -0.0124185313
   24      H       2.0632921328    -2.2264494182     0.2671679175
 ----------------------------------------------------------------

    9    -518.6118114263      1.88e-06  Convergence criterion met
 Total energy in the final basis set =     -518.6118114263

                    Orbital Energies (a.u.)
 --------------------------------------------------------------

 Alpha MOs
 -- Occupied --
-14.3770 -10.2131 -10.2128 -10.1946 -10.1899 -10.1858 -10.1828 -10.1822
-10.1778 -10.1772 -10.1724 -10.1716 -10.1668  -0.9850  -0.8496  -0.8110
 -0.7680  -0.7609  -0.7259  -0.7075  -0.6332  -0.6024  -0.5912  -0.5824
 -0.5636  -0.5028  -0.4870  -0.4789  -0.4574  -0.4522  -0.4305  -0.4250
 -0.4182  -0.4053  -0.3890  -0.3827  -0.3589  -0.3538  -0.3366  -0.3270
 -0.3102  -0.2636  -0.2500  -0.2178  -0.1906

          Ground-State Mulliken Net Atomic Charges

     Atom                 Charge (a.u.)
  ----------------------------------------
      1 C                    -0.345397
      2 C                    -0.123148
      3 C                     0.100520
      4 C                    -0.198035
      5 C                    -0.224919
      6 C                     0.179958
      7 C                    -0.119206
      8 C                    -0.368461
      9 C                     0.225633
     10 N                    -0.686812
     11 C                     0.048758
     12 C                    -0.232065
     13 C                     0.060697
     14 H                     0.138484
     15 H                     0.148156
     16 H                     0.129988
     17 H                     0.117932
     18 H                     0.121143
     19 H                     0.137055
     20 H                     0.137080
     21 H                     0.144626
     22 H                     0.327471
     23 H                     0.147229
     24 H                     0.133314
  ----------------------------------------
  Sum of atomic charges =     0.000000

                    Cartesian Multipole Moments
 -----------------------------------------------------------------
    Charge (ESU x 10^10)
                 0.0000
    Dipole Moment (Debye)
         X      -1.3967      Y      -1.2170      Z      -0.2756
       Tot       1.8729
    Quadrupole Moments (Debye-Ang)
        XX     -67.4277     XY       2.9050     YY     -66.0231
        XZ       1.5570     YZ       0.4804     ZZ     -79.9346

 Total job time:  35.89s(wall), 35.64s(cpu)
        *  Thank you very much for using Q-Chem.  Have a nice day.  *
