 Q-Chem 5.2, Q-Chem, Inc., Pleasanton, CA (2019)
 Q-Chem 5.2.1 for Intel X86 EM64T Linux

User input:
--------------------------------------------------------------
$molecule
0 1
C         3.97902219650000    0.17742084470000    0.02915071750000
C         2.89117423770000    0.93510752080000   -0.03418472830000
C         1.50499153640000    0.47970525400000   -0.01669147120000
C         1.14893939980000   -0.86821322080000    0.00272775990000
C        -0.18376013440000   -1.26310683000000    0.01755275610000
C        -0.48818615140000   -2.69022543290000    0.03202737070000
C        -1.68650198420000   -3.25549252790000   -0.04936967580000
C        -1.18516113790000   -0.28876079660000    0.01962342710000
C        -0.84875239190000    1.05590369260000    0.00067709990000
O        -1.74692354030000    2.08339288240000    0.00059940400000
C        -3.11882756240000    1.77765839290000    0.01623510180000
C         0.49268097500000    1.43254869310000   -0.01997981290000
H         4.96420368880000    0.61123898370000    0.01086269190000
H         3.94096109550000   -0.89571440980000    0.10350093090000
H         3.00603226260000    2.01008512100000   -0.10170425670000
H         1.91671280190000   -1.62614942380000   -0.00024065460000
H         0.38265485440000   -3.32988694930000    0.11066357280000
H        -2.59809734860000   -2.69002217650000   -0.13969165150000
H        -1.80138816610000   -4.32579374410000   -0.03274033360000
H        -2.21717514570000   -0.59582370270000    0.04077304750000
H        -3.63465365880000    2.73670462630000    0.00882017130000
H        -3.39864487050000    1.22511594770000    0.91945607940000
H        -3.41387029710000    1.20307784740000   -0.86818123930000
H         0.72481839340000    2.48637398770000   -0.03444136220000
$end

$rem
BASIS = 6-31G*
GUI = 2
METHOD = B3LYP
PRINT_ORBITALS false
MOLDEN_FORMAT false
--------------------------------------------------------------

             Standard Nuclear Orientation (Angstroms)
    I     Atom           X                Y                Z
 ----------------------------------------------------------------
    1      C       3.9920431176     0.1837331158     0.0275030130
    2      C       2.9064367226     0.9446814785    -0.0351867298
    3      C       1.5189077544     0.4934145986    -0.0172622883
    4      C       1.1588409148    -0.8534402680     0.0019284526
    5      C      -0.1750255546    -1.2443576874     0.0171798305
    6      C      -0.4837049360    -2.6705650774     0.0313833953
    7      C      -1.6837355134    -3.2322297601    -0.0496881808
    8      C      -1.1735123543    -0.2670271159     0.0199211897
    9      C      -0.8330983412     1.0766322905     0.0012103447
   10      O      -1.7281979605     2.1067982013     0.0017765259
   11      C      -3.1010022378     1.8051563140     0.0178789216
   12      C       0.5094451043     1.4492767242    -0.0198814859
   13      H       4.9785079398     0.6146132969     0.0089388972
   14      H       3.9508082290    -0.8893042711     0.1015727528
   15      H       3.0244764244     2.0193300496    -0.1024561194
   16      H       1.9243468872    -1.6136642830    -0.0015571834
   17      H       0.3852539772    -3.3128452134     0.1094935699
   18      H      -2.5936747754    -2.6640155568    -0.1394882074
   19      H      -1.8018098068    -4.3021877982    -0.0333076713
   20      H      -2.2064299152    -0.5710136164     0.0414006410
   21      H      -3.6139658112     2.7657401892     0.0109354563
   22      H      -3.3821058569     1.2532016884     0.9210598894
   23      H      -3.3981134510     1.2317039438    -0.8665771762
   24      H       0.7447217835     2.5024082837    -0.0341458317
 ----------------------------------------------------------------

    9    -501.5685890168      1.83e-06  Convergence criterion met
 Total energy in the final basis set =     -501.5685890168

                    Orbital Energies (a.u.)
 --------------------------------------------------------------

 Alpha MOs
 -- Occupied --
-19.1765 -10.2447 -10.2393 -10.1950 -10.1937 -10.1892 -10.1879 -10.1824
-10.1805 -10.1791 -10.1785 -10.1779  -1.0665  -0.8637  -0.8031  -0.7798
 -0.7402  -0.7224  -0.6980  -0.6279  -0.6154  -0.5739  -0.5400  -0.5238
 -0.4952  -0.4862  -0.4705  -0.4548  -0.4534  -0.4349  -0.4231  -0.3981
 -0.3866  -0.3796  -0.3683  -0.3521  -0.3469  -0.3345  -0.3252  -0.3155
 -0.2600  -0.2185  -0.2143

          Ground-State Mulliken Net Atomic Charges

     Atom                 Charge (a.u.)
  ----------------------------------------
      1 C                    -0.352947
      2 C                    -0.112121
      3 C                     0.189792
      4 C                    -0.272669
      5 C                     0.184330
      6 C                    -0.109680
      7 C                    -0.356394
      8 C                    -0.265325
      9 C                     0.392393
     10 O                    -0.510841
     11 C                    -0.212611
     12 C                    -0.254985
     13 H                     0.143913
     14 H                     0.143274
     15 H                     0.128031
     16 H                     0.122206
     17 H                     0.127369
     18 H                     0.139814
     19 H                     0.144061
     20 H                     0.127266
     21 H                     0.168907
     22 H                     0.151016
     23 H                     0.150395
     24 H                     0.134804
  ----------------------------------------
  Sum of atomic charges =     0.000000

                    Cartesian Multipole Moments
 -----------------------------------------------------------------
    Charge (ESU x 10^10)
                 0.0000
    Dipole Moment (Debye)
         X      -1.1799      Y      -0.3018      Z       0.0176
       Tot       1.2180
    Quadrupole Moments (Debye-Ang)
        XX     -59.0177     XY      -1.4650     YY     -67.4577
        XZ       0.1000     YZ      -0.2561     ZZ     -75.4000

 Total job time:  31.17s(wall), 31.06s(cpu)
        *  Thank you very much for using Q-Chem.  Have a nice day.  *
