 Q-Chem 5.2, Q-Chem, Inc., Pleasanton, CA (2019)
 Q-Chem 5.2.1 for Intel X86 EM64T Linux

User input:
--------------------------------------------------------------
$molecule
0 1
C        -0.79871564600000   -2.83021186620000   -0.11165935440000
C        -0.39801049270000   -1.70714956870000    0.46772323180000
C        -0.97090555520000   -0.39065098370000    0.21024634010000
C        -2.33486638410000   -0.24525558570000   -0.06399326110000
N        -2.94282544650000    0.90830246650000   -0.24213013290000
C        -2.22551834150000    2.01522769090000   -0.13166290510000
C        -0.87161123210000    2.00951608970000    0.14961801920000
C        -0.21441390630000    0.78904833620000    0.30216384080000
C         1.22918286310000    0.80427993770000    0.54039698030000
C         2.11688125680000    0.01015827160000   -0.03412157380000
F         1.88433687580000   -0.93470094880000   -0.93332634750000
F         3.42562820040000    0.08472893650000    0.19310543240000
H        -0.34994464190000   -3.77794803030000    0.12935180200000
H        -1.56726799460000   -2.84154626790000   -0.86565980210000
H         0.40672705180000   -1.73132248930000    1.19265731070000
H        -2.96899736890000   -1.11961240080000   -0.12292115430000
H        -2.76513816010000    2.94175090290000   -0.27315751490000
H        -0.32162899930000    2.93487222980000    0.22823039700000
H         1.61656233300000    1.57102172620000    1.19508416530000
$end

$rem
BASIS = 6-31G*
GUI = 2
METHOD = B3LYP
PRINT_ORBITALS false
MOLDEN_FORMAT false
--------------------------------------------------------------

             Standard Nuclear Orientation (Angstroms)
    I     Atom           X                Y                Z
 ----------------------------------------------------------------
    1      C       0.0423060045     2.9190800206     0.0552447261
    2      C      -0.0816340755     1.6996098759     0.5602686343
    3      C       0.7884286116     0.5748193682     0.2354473590
    4      C       2.1486241013     0.7740176240    -0.0232505500
    5      N       3.0138024055    -0.1893595485    -0.2586524868
    6      C       2.5798021322    -1.4394017003    -0.2261821133
    7      C       1.2625485917    -1.7720807140     0.0314684751
    8      C       0.3337129714    -0.7539289067     0.2444271044
    9      C      -1.0655633637    -1.1255266092     0.4563222402
   10      C      -2.1149506226    -0.5306785082    -0.0855738248
   11      F      -2.1111128283     0.4958162257    -0.9232485190
   12      F      -3.3691084334    -0.9271677923     0.1141657354
   13      H      -0.6195068445     3.7167696112     0.3440018877
   14      H       0.7882417541     3.1585982029    -0.6833544576
   15      H      -0.8710756283     1.4877277292     1.2713271797
   16      H       2.5569580302     1.7756879438    -0.0194537645
   17      H       3.3245424480    -2.2011079097    -0.4127861008
   18      H       0.9480175030    -2.8044615520     0.0457635055
   19      H      -1.2614488516    -2.0009957876     1.0577819042
 ----------------------------------------------------------------

    9    -601.5456096194      4.72e-06  Convergence criterion met
 Total energy in the final basis set =     -601.5456096194

                    Orbital Energies (a.u.)
 --------------------------------------------------------------

 Alpha MOs
 -- Occupied --
-24.7491 -24.7446 -14.3257 -10.3694 -10.2240 -10.2202 -10.2199 -10.2132
-10.2070 -10.1996 -10.1969 -10.1858  -1.2938  -1.2330  -0.9501  -0.8515
 -0.8049  -0.7750  -0.7402  -0.6618  -0.6499  -0.6179  -0.5825  -0.5767
 -0.5476  -0.5276  -0.5033  -0.4885  -0.4691  -0.4548  -0.4487  -0.4445
 -0.4317  -0.4290  -0.4068  -0.4013  -0.3780  -0.3639  -0.3194  -0.2991
 -0.2550  -0.2523  -0.2360

          Ground-State Mulliken Net Atomic Charges

     Atom                 Charge (a.u.)
  ----------------------------------------
      1 C                    -0.337025
      2 C                    -0.130123
      3 C                     0.091175
      4 C                    -0.009340
      5 N                    -0.403752
      6 C                     0.039884
      7 C                    -0.189962
      8 C                     0.136154
      9 C                    -0.336816
     10 C                     0.574234
     11 F                    -0.223004
     12 F                    -0.241989
     13 H                     0.147360
     14 H                     0.149938
     15 H                     0.138806
     16 H                     0.143038
     17 H                     0.141388
     18 H                     0.135396
     19 H                     0.174638
  ----------------------------------------
  Sum of atomic charges =     0.000000

                    Cartesian Multipole Moments
 -----------------------------------------------------------------
    Charge (ESU x 10^10)
                 0.0000
    Dipole Moment (Debye)
         X      -1.4592      Y      -0.7785      Z       0.7249
       Tot       1.8058
    Quadrupole Moments (Debye-Ang)
        XX     -76.1076     XY      -1.1741     YY     -58.5076
        XZ      -1.0896     YZ      -0.5906     ZZ     -67.7131

 Total job time:  24.12s(wall), 24.03s(cpu)
        *  Thank you very much for using Q-Chem.  Have a nice day.  *
