 Q-Chem 5.2, Q-Chem, Inc., Pleasanton, CA (2019)
 Q-Chem 5.2.1 for Intel X86 EM64T Linux

User input:
--------------------------------------------------------------
$molecule
0 1
C         4.09775105620000   -0.28086087720000    0.01327685170000
C         3.04520452020000    0.52802468980000    0.00096870960000
C         1.66879336470000    0.05022156010000    0.00367671480000
C         0.60903830000000    0.95819325790000   -0.01071763790000
C        -0.70297231940000    0.50122188560000   -0.00844177250000
O        -1.78028183220000    1.32286658040000   -0.02243148010000
C        -1.57879256280000    2.71605903200000   -0.04072498730000
C        -0.92427132220000   -0.89497910370000    0.00886471300000
C        -2.21803776480000   -1.55604337140000    0.01382965430000
C        -3.42514699590000   -1.00056077590000    0.00902575510000
C         0.22158344810000   -1.69640592620000    0.02205757640000
N         1.46190497280000   -1.26632235630000    0.01995629120000
H         5.10706929040000    0.09337015000000    0.01073920870000
H         3.95911960050000   -1.34786636220000    0.02617609220000
H         3.16918279360000    1.60340750480000   -0.01204847300000
H         0.83084916590000    2.01362258740000   -0.02363577390000
H        -2.57527829300000    3.15547420540000   -0.05110388080000
H        -1.03637835760000    3.03297478720000   -0.93700850930000
H        -1.04415592950000    3.05739758060000    0.85127787600000
H        -2.14370052140000   -2.63785300740000    0.02326548020000
H        -3.57532530360000    0.06238605750000    0.00019318780000
H        -4.31083888510000   -1.61435007020000    0.01425411400000
H         0.11182217800000   -2.77434500390000    0.03583248050000
$end

$rem
BASIS = 6-31G*
GUI = 2
METHOD = B3LYP
PRINT_ORBITALS false
MOLDEN_FORMAT false
--------------------------------------------------------------

             Standard Nuclear Orientation (Angstroms)
    I     Atom           X                Y                Z
 ----------------------------------------------------------------
    1      C       4.1149907255    -0.1599626995     0.0003047987
    2      C       3.0340209445     0.6106249275     0.0010812079
    3      C       1.6756853078     0.0836193643     0.0005640140
    4      C       0.5839445479     0.9529885099     0.0005827440
    5      C      -0.7107823381     0.4491219593    -0.0002358406
    6      O      -1.8169621912     1.2315905993    -0.0009160792
    7      C      -1.6657291523     2.6312499382    -0.0012134142
    8      C      -0.8817067940    -0.9542433983    -0.0009206308
    9      C      -2.1508583326    -1.6614320817    -0.0017940948
   10      C      -3.3771618494    -1.1497206691     0.0034786702
   11      C       0.2922449073    -1.7140325539    -0.0009239246
   12      N       1.5162961897    -1.2396154407    -0.0001252531
   13      H       5.1101951533     0.2503380751     0.0004481803
   14      H       4.0148358275    -1.2313421506    -0.0006139507
   15      H       3.1192307557     1.6898499521     0.0020259830
   16      H       0.7676408285     2.0157929942     0.0011418415
   17      H      -2.6773894600     3.0346297796    -0.0035267991
   18      H      -1.1375038317     2.9792351420    -0.8944419551
   19      H      -1.1412748340     2.9798400020     0.8940240280
   20      H      -2.0376602814    -2.7398975509    -0.0068519638
   21      H      -3.5654720476    -0.0928405353     0.0090608904
   22      H      -4.2402025147    -1.7949917358     0.0025749106
   23      H       0.2213368070    -2.7953104631    -0.0011769384
 ----------------------------------------------------------------

    9    -517.6103187543      2.37e-06  Convergence criterion met
 Total energy in the final basis set =     -517.6103187543

                    Orbital Energies (a.u.)
 --------------------------------------------------------------

 Alpha MOs
 -- Occupied --
-19.1959 -14.3136 -10.2644 -10.2518 -10.2234 -10.2150 -10.1966 -10.1917
-10.1873 -10.1847 -10.1764 -10.1709  -1.0867  -0.9441  -0.8220  -0.7963
 -0.7675  -0.7322  -0.7173  -0.6428  -0.6240  -0.5770  -0.5696  -0.5178
 -0.5144  -0.4854  -0.4779  -0.4701  -0.4472  -0.4356  -0.4185  -0.4095
 -0.4048  -0.3934  -0.3732  -0.3568  -0.3546  -0.3238  -0.3150  -0.2735
 -0.2506  -0.2490  -0.2105

          Ground-State Mulliken Net Atomic Charges

     Atom                 Charge (a.u.)
  ----------------------------------------
      1 C                    -0.331529
      2 C                    -0.108227
      3 C                     0.325139
      4 C                    -0.267131
      5 C                     0.364762
      6 O                    -0.501731
      7 C                    -0.220128
      8 C                     0.116717
      9 C                    -0.117820
     10 C                    -0.356051
     11 C                    -0.033941
     12 N                    -0.497031
     13 H                     0.140173
     14 H                     0.172805
     15 H                     0.120841
     16 H                     0.133625
     17 H                     0.174825
     18 H                     0.159559
     19 H                     0.159550
     20 H                     0.126907
     21 H                     0.165858
     22 H                     0.135000
     23 H                     0.137828
  ----------------------------------------
  Sum of atomic charges =     0.000000

                    Cartesian Multipole Moments
 -----------------------------------------------------------------
    Charge (ESU x 10^10)
                 0.0000
    Dipole Moment (Debye)
         X      -0.9847      Y       2.7885      Z      -0.0003
       Tot       2.9572
    Quadrupole Moments (Debye-Ang)
        XX     -68.4586     XY       0.6467     YY     -60.0501
        XZ      -0.0054     YZ       0.0131     ZZ     -73.6903

 Total job time:  28.03s(wall), 27.93s(cpu)
        *  Thank you very much for using Q-Chem.  Have a nice day.  *
