 Q-Chem 5.2, Q-Chem, Inc., Pleasanton, CA (2019)
 Q-Chem 5.2.1 for Intel X86 EM64T Linux

User input:
--------------------------------------------------------------
$molecule
0 1
C        -3.92917854880000   -1.65150372330000    0.15009739680000
C        -2.61324981860000   -1.64619113770000    0.32228320340000
C        -1.72061454150000   -0.50486796200000    0.14598978040000
C        -2.18401283390000    0.79889963340000    0.01621522770000
C        -1.30823219280000    1.86853476970000   -0.15590749270000
C        -1.76102351160000    3.24969506940000   -0.29011108650000
C        -2.99029337690000    3.70207613640000   -0.07667298710000
C         0.06024160460000    1.60900091890000   -0.20574917070000
C         0.52450929210000    0.31224645690000   -0.06698436500000
O         1.92874047900000    0.18281189760000   -0.12523462260000
C         2.49755259740000   -0.99405085290000   -0.00265533240000
F         2.25814530710000   -1.61159318230000    1.16999270770000
F         2.14955843400000   -1.88530219910000   -0.95043028230000
F         3.81649550360000   -0.84686082940000   -0.08933586060000
C        -0.34240860600000   -0.74579886250000    0.11300515070000
H        -4.50714061210000   -2.54723090770000    0.29785431380000
H        -4.48245841360000   -0.77925443270000   -0.15293234540000
H        -2.11720915280000   -2.56623540250000    0.60413763310000
H        -3.24404367170000    0.98579397290000    0.05094046030000
H        -0.98654105490000    3.94862512030000   -0.57916975970000
H        -3.80200435810000    3.06619830690000    0.23216062850000
H        -3.22959153260000    4.74453617120000   -0.19634532170000
H         0.77490404880000    2.40449659710000   -0.34166903890000
H         0.01122502920000   -1.75908884490000    0.21997128550000
$end

$rem
BASIS = 6-31G*
GUI = 2
METHOD = B3LYP
PRINT_ORBITALS false
MOLDEN_FORMAT false
--------------------------------------------------------------

             Standard Nuclear Orientation (Angstroms)
    I     Atom           X                Y                Z
 ----------------------------------------------------------------
    1      C       2.6490529709    -3.2090172258     0.1305691293
    2      C       1.4701862245    -2.6399893618    -0.0881203374
    3      C       1.1753717019    -1.2112132105    -0.0414426433
    4      C       2.1683204540    -0.2394956715    -0.0066985070
    5      C       1.8568943833     1.1174597486     0.0425262561
    6      C       2.8745824211     2.1633608705     0.0747172096
    7      C       4.1759149983     2.0056907432    -0.1326050232
    8      C       0.5150552961     1.4936226626     0.0655886250
    9      C      -0.4756235530     0.5277225074     0.0212648163
   10      O      -1.7919477024     1.0365818655     0.0403569928
   11      C      -2.8232742975     0.2253053398    -0.0017701370
   12      F      -2.8884342972    -0.5395493952    -1.1083546182
   13      F      -2.8998498833    -0.6366183703     1.0301842966
   14      F      -3.9406045786     0.9461650002     0.0251222380
   15      C      -0.1670660844    -0.8157019342    -0.0370946213
   16      H       2.7704246201    -4.2771619436     0.0802180942
   17      H       3.5327760682    -2.6462558737     0.3777484291
   18      H       0.6167844622    -3.2687092983    -0.3081121197
   19      H       3.2014876675    -0.5431443439    -0.0194932564
   20      H       2.4907393457     3.1554397529     0.2755285460
   21      H       4.6209179526     1.0516751309    -0.3571492625
   22      H       4.8522529202     2.8419667200    -0.0936498552
   23      H       0.2266850439     2.5314515827     0.1078227816
   24      H      -0.9329747209    -1.5743585718    -0.0699451507
 ----------------------------------------------------------------

    9    -799.2987650183      2.31e-06  Convergence criterion met
 Total energy in the final basis set =     -799.2987650183

                    Orbital Energies (a.u.)
 --------------------------------------------------------------

 Alpha MOs
 -- Occupied --
-24.7297 -24.7278 -24.7277 -19.2243 -10.4821 -10.2728 -10.2118 -10.2117
-10.2033 -10.2023 -10.2005 -10.1999 -10.1960 -10.1905 -10.1899  -1.3265
 -1.2261  -1.2211  -1.1217  -0.8858  -0.8173  -0.8047  -0.7539  -0.7425
 -0.7015  -0.6545  -0.6447  -0.6250  -0.6021  -0.5952  -0.5649  -0.5421
 -0.5234  -0.4999  -0.4824  -0.4729  -0.4707  -0.4594  -0.4522  -0.4417
 -0.4366  -0.4341  -0.4141  -0.4085  -0.4054  -0.4016  -0.3846  -0.3778
 -0.3737  -0.3699  -0.3492  -0.3277  -0.2863  -0.2385  -0.2344

          Ground-State Mulliken Net Atomic Charges

     Atom                 Charge (a.u.)
  ----------------------------------------
      1 C                    -0.346708
      2 C                    -0.115095
      3 C                     0.169100
      4 C                    -0.238591
      5 C                     0.177532
      6 C                    -0.113894
      7 C                    -0.347939
      8 C                    -0.247593
      9 C                     0.351002
     10 O                    -0.523552
     11 C                     0.975259
     12 F                    -0.276975
     13 F                    -0.276672
     14 F                    -0.253240
     15 C                    -0.240565
     16 H                     0.150299
     17 H                     0.147196
     18 H                     0.135242
     19 H                     0.129427
     20 H                     0.133954
     21 H                     0.147545
     22 H                     0.150329
     23 H                     0.150613
     24 H                     0.163325
  ----------------------------------------
  Sum of atomic charges =     0.000000

                    Cartesian Multipole Moments
 -----------------------------------------------------------------
    Charge (ESU x 10^10)
                 0.0000
    Dipole Moment (Debye)
         X       2.5891      Y      -0.1904      Z       0.0025
       Tot       2.5961
    Quadrupole Moments (Debye-Ang)
        XX     -82.3451     XY       1.0411     YY     -76.0411
        XZ       0.1915     YZ       0.7462     ZZ     -88.0709

 Total job time:  37.22s(wall), 37.10s(cpu)
        *  Thank you very much for using Q-Chem.  Have a nice day.  *
