 Q-Chem 5.2, Q-Chem, Inc., Pleasanton, CA (2019)
 Q-Chem 5.2.1 for Intel X86 EM64T Linux

User input:
--------------------------------------------------------------
$molecule
0 1
C        -3.10268406680000   -1.13283696060000    0.09465435220000
C        -1.79013147920000   -1.29490872380000   -0.03660694870000
C        -0.77920542230000   -0.26487450890000    0.00177902590000
C        -0.90538324600000    1.14394574170000   -0.04770074830000
C        -2.12156446360000    1.99383521660000   -0.13679395990000
N         0.28892803870000    1.70946487080000   -0.01880439500000
N         1.19165179750000    0.73356984010000    0.03481820840000
C         2.57490638070000    1.09171230010000    0.14671082120000
C         0.60732229980000   -0.49061060870000    0.05030093030000
C         1.28903071100000   -1.75818451780000    0.13769826830000
C         2.53718239710000   -2.04168781770000   -0.22331662220000
H        -3.77060409430000   -1.97645344860000    0.04723104710000
H        -3.56023738060000   -0.17561690920000    0.26152673900000
H        -1.40596481120000   -2.29635960220000   -0.19013879980000
H        -2.75171677750000    1.67429352860000   -0.96527504150000
H        -1.81639407410000    3.02527648260000   -0.29294721180000
H        -2.70003181880000    1.93600968080000    0.78475303710000
H         2.61326034260000    2.13551723270000    0.45494775520000
H         3.08793668950000    0.99211942650000   -0.81303795830000
H         3.07046489600000    0.46746183600000    0.89074552400000
H         0.67120356590000   -2.55552625950000    0.53160904660000
H         3.20501999440000   -1.32430117400000   -0.66437768130000
H         2.92733916530000   -3.03869029150000   -0.10938419190000
$end

$rem
BASIS = 6-31G*
GUI = 2
METHOD = B3LYP
PRINT_ORBITALS false
MOLDEN_FORMAT false
--------------------------------------------------------------

             Standard Nuclear Orientation (Angstroms)
    I     Atom           X                Y                Z
 ----------------------------------------------------------------
    1      C       2.8541235154     1.6527959165     0.0966384946
    2      C       1.5337714862     1.5816208106    -0.0371363304
    3      C       0.7192613899     0.3902324457     0.0026446518
    4      C       1.0908651079    -0.9746886359    -0.0425737894
    5      C       2.4375216440    -1.5981315123    -0.1273182732
    6      N       0.0143023180    -1.7409896114    -0.0139084142
    7      N      -1.0458086874    -0.9385676264     0.0354909128
    8      C      -2.3449503625    -1.5336646864     0.1462592186
    9      C      -0.6854588899     0.3692095093     0.0483530499
   10      C      -1.5792523823     1.4976624179     0.1310300931
   11      C      -2.8570487909     1.5567477785    -0.2327469844
   12      H       3.3636930656     2.6004302607     0.0478231781
   13      H       3.4722482783     0.7911837526     0.2669849407
   14      H       0.9801029971     2.4996927632    -0.1941554824
   15      H       3.0034929872    -1.1750673262    -0.9557341499
   16      H       2.3184528866    -2.6675226398    -0.2809709251
   17      H       2.9949758057    -1.4373001832     0.7949589533
   18      H      -2.2001235214    -2.5672012181     0.4574459714
   19      H      -2.8655365148    -1.5281340530    -0.8145716864
   20      H      -2.9439051069    -1.0041846116     0.8877162892
   21      H      -1.1117764788     2.3920804471     0.5236018754
   22      H      -3.3876965351     0.7321438240    -0.6727774385
   23      H      -3.4163795838     2.4700753862    -0.1222998003
 ----------------------------------------------------------------

    9    -459.6319843417      2.89e-06  Convergence criterion met
 Total energy in the final basis set =     -459.6319843417

                    Orbital Energies (a.u.)
 --------------------------------------------------------------

 Alpha MOs
 -- Occupied --
-14.4070 -14.3352 -10.2258 -10.2196 -10.2026 -10.2001 -10.1887 -10.1865
-10.1782 -10.1746 -10.1700  -1.0530  -0.8520  -0.8229  -0.7740  -0.7471
 -0.7281  -0.6732  -0.6201  -0.6099  -0.5524  -0.5346  -0.4958  -0.4823
 -0.4741  -0.4522  -0.4331  -0.4258  -0.4225  -0.4093  -0.3891  -0.3852
 -0.3751  -0.3627  -0.3426  -0.3104  -0.2948  -0.2763  -0.2275  -0.2045

          Ground-State Mulliken Net Atomic Charges

     Atom                 Charge (a.u.)
  ----------------------------------------
      1 C                    -0.366055
      2 C                    -0.112665
      3 C                    -0.041946
      4 C                     0.294258
      5 C                    -0.529319
      6 N                    -0.353743
      7 N                    -0.323263
      8 C                    -0.326241
      9 C                     0.329483
     10 C                    -0.092396
     11 C                    -0.356358
     12 H                     0.136471
     13 H                     0.142313
     14 H                     0.121959
     15 H                     0.164716
     16 H                     0.170905
     17 H                     0.163101
     18 H                     0.192903
     19 H                     0.170120
     20 H                     0.176359
     21 H                     0.145255
     22 H                     0.146204
     23 H                     0.147937
  ----------------------------------------
  Sum of atomic charges =     0.000000

                    Cartesian Multipole Moments
 -----------------------------------------------------------------
    Charge (ESU x 10^10)
                 0.0000
    Dipole Moment (Debye)
         X      -1.6495      Y       0.7504      Z       0.1726
       Tot       1.8203
    Quadrupole Moments (Debye-Ang)
        XX     -56.7965     XY       0.7626     YY     -64.9490
        XZ       0.2353     YZ       0.1664     ZZ     -68.2713

 Total job time:  29.00s(wall), 28.89s(cpu)
        *  Thank you very much for using Q-Chem.  Have a nice day.  *
