 Q-Chem 5.4, Q-Chem, Inc., Pleasanton, CA (2021)
 Q-Chem 5.4.2 for Intel X86 EM64T Linux

User input:
--------------------------------------------------------------
$molecule
0 1
C           -4.48213152600000        0.38993902930000        0.12434726530000
C           -3.30533660560000        0.71347341830000       -0.39214287560000
C           -2.05935721280000       -0.00934248170000       -0.12292904070000
C           -2.08639553960000       -1.39585403000000        0.00076223060000
C           -0.92613695400000       -2.10652193450000        0.23872134310000
C            0.27298161030000       -1.43540284910000        0.36725871440000
C            0.32568211240000       -0.04598502380000        0.25435612610000
C            1.61231688970000        0.63003843730000        0.44915978390000
C            2.77551021980000        0.18969871540000        0.00359180880000
F            2.99359143560000       -0.88862269320000       -0.74086417770000
F            3.93675008770000        0.80551247550000        0.22827932300000
C           -0.84300680130000        0.67870902730000       -0.00453391620000
C           -0.82979105820000        2.17023909390000       -0.17309314670000
H           -5.37501793490000        0.94389079130000       -0.11048354900000
H           -4.59711127700000       -0.42759693340000        0.81655744310000
H           -3.23271529200000        1.56370271690000       -1.05708017750000
H           -3.02515022670000       -1.91614978530000       -0.11409466820000
H           -0.95536475900000       -3.18204769460000        0.32647326230000
H            1.17737814040000       -1.98649681730000        0.57268011400000
H            1.63983366900000        1.54454693600000        1.02176394480000
H            0.15700488260000        2.59168834320000       -0.01613074740000
H           -1.52627973610000        2.63649237790000        0.52259403650000
H           -1.14165247350000        2.43228301820000       -1.18431348610000
$end

$rem
BASIS = 6-31G*
GUI = 2
METHOD = B3LYP
PRINT_ORBITALS false
MOLDEN_FORMAT false
$end
--------------------------------------------------------------

             Standard Nuclear Orientation (Angstroms)
    I     Atom           X                Y                Z
 ----------------------------------------------------------------
    1      C      -4.3588897138     0.3300786788     0.1472684025
    2      C      -3.1866366908     0.6807159001    -0.3618084487
    3      C      -1.9342632554    -0.0418619249    -0.1233852397
    4      C      -1.9505551223    -1.4320728571    -0.0492703672
    5      C      -0.7841168747    -2.1420388520     0.1586803379
    6      C       0.4105276730    -1.4669363823     0.3065622981
    7      C       0.4525034222    -0.0740135813     0.2432350723
    8      C       1.7348956262     0.6042801289     0.4571815915
    9      C       2.8994789316     0.1889156272    -0.0082930801
   10      F       3.1224742563    -0.8604352614    -0.7916748456
   11      F       4.0570474844     0.8050278320     0.2338430254
   12      C      -0.7225539726     0.6506538896     0.0149009439
   13      C      -0.7210431524     2.1473129515    -0.1002432244
   14      H      -5.2567951012     0.8853337779    -0.0641834720
   15      H      -4.4649989103    -0.5125191302     0.8102239774
   16      H      -3.1230144346     1.5546915733    -0.9961774754
   17      H      -2.8859030688    -1.9549819073    -0.1790797923
   18      H      -0.8050417806    -3.2202034146     0.2080123641
   19      H       1.3198014906    -2.0181977652     0.4886820643
   20      H       1.7579971524     1.4979185939     1.0620246337
   21      H       0.2632464204     2.5702980653     0.0679249169
   22      H      -1.4181077598     2.5831464267     0.6143331362
   23      H      -1.0389609011     2.4429791723    -1.1002436876
 ----------------------------------------------------------------

    9    -624.8244518992      4.80e-06  Convergence criterion met
 Total energy in the final basis set =     -624.8244518992

                    Orbital Energies (a.u.)
 --------------------------------------------------------------

 Alpha MOs
 -- Occupied --
-24.7374 -24.7312 -10.3527 -10.2006 -10.1987 -10.1969 -10.1917 -10.1902
-10.1845 -10.1838 -10.1831 -10.1829 -10.1811  -1.2800  -1.2198  -0.8719
 -0.8135  -0.7866  -0.7660  -0.7219  -0.6884  -0.6424  -0.6205  -0.5887
 -0.5669  -0.5622  -0.5170  -0.5146  -0.4961  -0.4793  -0.4578  -0.4386
 -0.4367  -0.4327  -0.4298  -0.4159  -0.4111  -0.4052  -0.3944  -0.3738
 -0.3593  -0.3424  -0.3348  -0.2988  -0.2741  -0.2302  -0.2221

          Ground-State Mulliken Net Atomic Charges

     Atom                 Charge (a.u.)
  ----------------------------------------
      1 C                    -0.336323
      2 C                    -0.130214
      3 C                     0.095456
      4 C                    -0.177389
      5 C                    -0.134914
      6 C                    -0.171195
      7 C                     0.113376
      8 C                    -0.333032
      9 C                     0.556713
     10 F                    -0.237391
     11 F                    -0.249919
     12 C                     0.066032
     13 C                    -0.533377
     14 H                     0.142581
     15 H                     0.145572
     16 H                     0.133484
     17 H                     0.129100
     18 H                     0.128693
     19 H                     0.131395
     20 H                     0.168758
     21 H                     0.155748
     22 H                     0.169422
     23 H                     0.167424
  ----------------------------------------
  Sum of atomic charges =     0.000000

                    Cartesian Multipole Moments
 -----------------------------------------------------------------
    Charge (ESU x 10^10)
                 0.0000
    Dipole Moment (Debye)
         X      -1.1606      Y       0.5583      Z       0.3034
       Tot       1.3231
    Quadrupole Moments (Debye-Ang)
        XX     -74.3874     XY      -0.2650     YY     -68.5978
        XZ       1.2766     YZ      -1.3040     ZZ     -75.6624

 Total job time:  59.46s(wall), 50.41s(cpu)
        *  Thank you very much for using Q-Chem.  Have a nice day.  *
