 Q-Chem 5.2, Q-Chem, Inc., Pleasanton, CA (2019)
 Q-Chem 5.2.1 for Intel X86 EM64T Linux

User input:
--------------------------------------------------------------
$molecule
0 1
C        -5.83076513660000   -0.03882430440000   -0.46684684500000
C        -4.83977204290000    0.67028205370000    0.06595765880000
C        -3.46627197650000    0.25330081130000    0.12649298810000
C        -2.41200121670000    0.94743413360000    0.65705457410000
C        -1.17360022570000    0.27478236980000    0.58938544330000
C         0.10471237140000    0.93442223260000    1.00305187280000
C         0.47440218160000    2.03901988420000    0.00576277050000
C         1.79029947360000    2.73924036850000    0.34712542160000
C         3.01025986490000    1.81740065600000    0.41046379630000
C         3.25614521510000    1.05197583390000   -0.88815350660000
C         4.55255942930000    0.24168389570000   -0.86929669120000
C         4.50252047850000   -0.94906776140000    0.08619444940000
C         5.75235031530000   -1.81355730130000   -0.02640585030000
C        -1.28512001510000   -0.96078585750000   -0.00320773500000
C        -0.31000159690000   -1.99364303540000   -0.27664851440000
C         0.72032942530000   -2.33549660650000    0.48957667060000
S        -2.92789751960000   -1.27491093060000   -0.49983756840000
H        -6.84242837440000    0.32558720710000   -0.48488169390000
H        -5.65433630050000   -1.00888876280000   -0.90180822780000
H        -5.03323344650000    1.64378156170000    0.49938470890000
H        -2.52284320610000    1.92479447280000    1.09464643660000
H         0.90564107640000    0.20175836770000    1.03287493940000
H        -0.01068392780000    1.36817369150000    1.99951032850000
H        -0.32199942950000    2.78668264880000   -0.01446654180000
H         0.53583557280000    1.60516734790000   -0.99384662580000
H         1.68479773540000    3.24014421730000    1.31314701000000
H         1.97034873220000    3.51112916220000   -0.40552754120000
H         2.89272546380000    1.11572533940000    1.23650727790000
H         3.88848860660000    2.43064255020000    0.62915963890000
H         3.29881899190000    1.76827093060000   -1.71270184910000
H         2.42511855130000    0.37078085330000   -1.08038806480000
H         5.38663832980000    0.89224702110000   -0.59520157480000
H         4.74448306680000   -0.13177124970000   -1.87850820510000
H         3.62093335320000   -1.55289468480000   -0.14228057810000
H         4.40709662720000   -0.59485051170000    1.11402385410000
H         5.85672224310000   -2.20498723130000   -1.03622109190000
H         5.70226787380000   -2.65308341300000    0.66339197820000
H         6.64101940480000   -1.23078054220000    0.20677658260000
H        -0.50296386090000   -2.55779585070000   -1.18179380480000
H         0.92611335770000   -1.86310354600000    1.43432115960000
H         1.38444326140000   -3.13216452350000    0.20096377260000
$end

$rem
BASIS = 6-31G*
GUI = 2
METHOD = B3LYP
PRINT_ORBITALS false
MOLDEN_FORMAT false
--------------------------------------------------------------

             Standard Nuclear Orientation (Angstroms)
    I     Atom           X                Y                Z
 ----------------------------------------------------------------
    1      C       5.9581055145    -0.0848817485     0.4938073114
    2      C       4.9663409625     0.6715819355     0.0323470786
    3      C       3.5951866351     0.2572799114    -0.0786932678
    4      C       2.5402071790     0.9983470811    -0.5398237242
    5      C       1.3047508121     0.3169988117    -0.5492376684
    6      C       0.0253244387     1.0106294796    -0.8989123900
    7      C      -0.3546151139     2.0038037989     0.2059146504
    8      C      -1.6721782219     2.7301056248    -0.0678297253
    9      C      -2.8873440676     1.8146436885    -0.2333741975
   10      C      -3.1359367611     0.9171351213     0.9771718396
   11      C      -4.4283129961     0.1076549416     0.8670631427
   12      C      -4.3678068576    -0.9769272692    -0.2068908416
   13      C      -5.6139869555    -1.8537957946    -0.1916472942
   14      C       1.4193108793    -0.9730586892    -0.0878703330
   15      C       0.4478549501    -2.0329444493     0.0713003065
   16      C      -0.5770178602    -2.2975881996    -0.7319097044
   17      S       3.0611149797    -1.3301286919     0.3822509186
   18      H       6.9678953703     0.2800089258     0.5551486111
   19      H       5.7842194831    -1.0957054476     0.8244773730
   20      H       5.1572349886     1.6857353254    -0.2963472885
   21      H       2.6484856715     2.0164194173    -0.8727055405
   22      H      -0.7718989400     0.2816222403    -1.0091660709
   23      H       0.1435417153     1.5462533503    -1.8441731119
   24      H       0.4380561877     2.7487076514     0.3081634595
   25      H      -0.4188858355     1.4679828790     1.1545906995
   26      H      -1.5643298861     3.3293052236    -0.9758834512
   27      H      -1.8596670379     3.4186640089     0.7600904540
   28      H      -2.7623454893     1.2032888635    -1.1273154999
   29      H      -3.7674344580     2.4435475844    -0.3918040230
   30      H      -3.1861397384     1.5435069723     1.8715529951
   31      H      -2.3025884644     0.2232003157     1.1019562327
   32      H      -5.2641614006     0.7796337891     0.6576592302
   33      H      -4.6234099906    -0.3696568200     1.8308691154
   34      H      -3.4844519148    -1.5974711149    -0.0377369715
   35      H      -4.2690225175    -0.5172244416    -1.1917379470
   36      H      -5.7214504846    -2.3486717369     0.7713621052
   37      H      -5.5564454230    -2.6167245838    -0.9647980053
   38      H      -6.5042987769    -1.2537278434    -0.3677122343
   39      H       0.6390695194    -2.6874306134     0.9138415106
   40      H      -0.7804150860    -1.7302947817    -1.6234545022
   41      H      -1.2386923914    -3.1228155567    -0.5313829332
 ----------------------------------------------------------------

    9   -1022.3077825547      3.25e-06  Convergence criterion met
 Total energy in the final basis set =    -1022.3077825547

                    Orbital Energies (a.u.)
 --------------------------------------------------------------

 Alpha MOs
 -- Occupied --
-88.8972 -10.2146 -10.2133 -10.1995 -10.1963 -10.1912 -10.1850 -10.1837
-10.1823 -10.1801 -10.1760 -10.1739 -10.1722 -10.1715 -10.1705 -10.1699
-10.1665  -7.9593  -5.9233  -5.9197  -5.9160  -0.8879  -0.8167  -0.8053
 -0.7913  -0.7727  -0.7568  -0.7266  -0.7099  -0.6828  -0.6449  -0.6217
 -0.6123  -0.5862  -0.5751  -0.5477  -0.5349  -0.5202  -0.4945  -0.4696
 -0.4654  -0.4589  -0.4537  -0.4401  -0.4251  -0.4241  -0.4170  -0.4083
 -0.3971  -0.3946  -0.3844  -0.3804  -0.3707  -0.3636  -0.3562  -0.3517
 -0.3482  -0.3387  -0.3304  -0.3288  -0.3227  -0.3122  -0.3069  -0.3041
 -0.3017  -0.2683  -0.2423  -0.1986

          Ground-State Mulliken Net Atomic Charges

     Atom                 Charge (a.u.)
  ----------------------------------------
      1 C                    -0.374903
      2 C                    -0.053868
      3 C                    -0.136748
      4 C                    -0.173840
      5 C                     0.179953
      6 C                    -0.350223
      7 C                    -0.258318
      8 C                    -0.256249
      9 C                    -0.261986
     10 C                    -0.261413
     11 C                    -0.247036
     12 C                    -0.258827
     13 C                    -0.440966
     14 C                    -0.209376
     15 C                    -0.106720
     16 C                    -0.334851
     17 S                     0.230009
     18 H                     0.145903
     19 H                     0.155876
     20 H                     0.136537
     21 H                     0.132680
     22 H                     0.152832
     23 H                     0.140943
     24 H                     0.132553
     25 H                     0.147480
     26 H                     0.124343
     27 H                     0.129282
     28 H                     0.138516
     29 H                     0.126998
     30 H                     0.125079
     31 H                     0.140632
     32 H                     0.125535
     33 H                     0.125257
     34 H                     0.135141
     35 H                     0.133869
     36 H                     0.141435
     37 H                     0.139487
     38 H                     0.141914
     39 H                     0.143312
     40 H                     0.153475
     41 H                     0.146285
  ----------------------------------------
  Sum of atomic charges =     0.000000

                    Cartesian Multipole Moments
 -----------------------------------------------------------------
    Charge (ESU x 10^10)
                -0.0000
    Dipole Moment (Debye)
         X      -0.5662      Y       0.8153      Z      -0.2497
       Tot       1.0235
    Quadrupole Moments (Debye-Ang)
        XX    -111.5478     XY       3.6731     YY    -109.4965
        XZ       0.9325     YZ      -2.9660     ZZ    -114.4473

 Total job time:  83.88s(wall), 83.50s(cpu)
        *  Thank you very much for using Q-Chem.  Have a nice day.  *
