 Q-Chem 5.2, Q-Chem, Inc., Pleasanton, CA (2019)
 Q-Chem 5.2.1 for Intel X86 EM64T Linux

User input:
--------------------------------------------------------------
$molecule
0 1
C        -2.86284874440000    2.36240749450000   -0.05972196400000
C        -2.55044193880000    1.15697895740000   -0.51659256350000
C        -1.24339322960000    0.52023268380000   -0.36697864480000
C        -0.08738636460000    1.29723213630000   -0.37914139040000
C         1.18023654480000    0.75802160080000   -0.24701335780000
C         2.36835875150000    1.68184778670000   -0.26108622850000
C         2.68763268060000    2.17532482460000    1.15202100600000
C         1.31011744410000   -0.62865553440000   -0.09753138280000
C         2.61787718600000   -1.26602856660000    0.05741467330000
C         2.92845699340000   -2.47180205230000   -0.39948040660000
C         0.15414558920000   -1.40676871620000   -0.09117525410000
C        -1.11361121270000   -0.86867284010000   -0.22549713890000
C        -2.31155394340000   -1.77355542730000   -0.14380272290000
C        -3.02277983840000   -1.62492626810000    1.20213233570000
H        -3.84098903790000    2.78780330460000   -0.20821714450000
H        -2.16323065500000    2.96385520440000    0.49646621120000
H        -3.30415571100000    0.58056378790000   -1.03760227260000
H        -0.18451513730000    2.36427872040000   -0.52131974580000
H         2.14404947580000    2.54405779540000   -0.89320108030000
H         3.23909263020000    1.17860772560000   -0.68361634740000
H         1.83409706240000    2.70810673700000    1.56545459290000
H         3.54280378620000    2.84765823980000    1.13719200590000
H         2.91436105340000    1.34005104710000    1.81092693720000
H         3.37045722360000   -0.69321818080000    0.58226851400000
H         2.22791128360000   -3.07256834640000   -0.95520769190000
H         3.90567278820000   -2.89894019740000   -0.24992261630000
H         0.25288215530000   -2.47405144080000    0.04754948780000
H        -1.98873776630000   -2.80974826230000   -0.26498604660000
H        -3.01374473550000   -1.54973056440000   -0.95026967280000
H        -2.34173523100000   -1.86874599900000    2.01471756620000
H        -3.88013818190000   -2.29243567310000    1.25580562830000
H        -3.36724294330000   -0.60252370410000    1.34009864930000
$end

$rem
BASIS = 6-31G*
GUI = 2
METHOD = B3LYP
PRINT_ORBITALS false
MOLDEN_FORMAT false
--------------------------------------------------------------

             Standard Nuclear Orientation (Angstroms)
    I     Atom           X                Y                Z
 ----------------------------------------------------------------
    1      C      -2.8084600248    -2.4161717573     0.1257122623
    2      C      -2.5212231108    -1.1969639011     0.5620766440
    3      C      -1.2283224346    -0.5349954685     0.3995586281
    4      C      -0.0559409951    -1.2868128210     0.4223705160
    5      C       1.1996558798    -0.7228981430     0.2790164696
    6      C       2.4072891724    -1.6207710086     0.3060977077
    7      C       2.7349144758    -2.1305815855    -1.0992785128
    8      C       1.2996166571     0.6635798435     0.1064649643
    9      C       2.5932067497     1.3261019474    -0.0613961065
   10      C       2.8786097432     2.5456159970     0.3749904694
   11      C       0.1272551545     1.4166071522     0.0894404789
   12      C      -1.1284961177     0.8538400938     0.2349699588
   13      C      -2.3456444437     1.7314498154     0.1406068870
   14      C      -3.0555578342     1.5454540988    -1.2013702566
   15      H      -3.7770509685    -2.8598581813     0.2830170259
   16      H      -2.0969754014    -3.0116372781    -0.4217916638
   17      H      -3.2863085375    -0.6282584442     1.0749200979
   18      H      -0.1300059479    -2.3531976655     0.5822918785
   19      H       2.2024301440    -2.4770208126     0.9527498459
   20      H       3.2676946261    -1.0921340676     0.7186570220
   21      H       1.8923490304    -2.6882319557    -1.5022877973
   22      H       3.6042942813    -2.7841543540    -1.0749653372
   23      H       2.9427278625    -1.3016489098    -1.7722787209
   24      H       3.3570757868     0.7609122592    -0.5781404492
   25      H       2.1662115947     3.1403729213     0.9220465233
   26      H       3.8462375245     2.9910068220     0.2165962544
   27      H       0.2029276898     2.4833194311    -0.0670346286
   28      H      -2.0448866081     2.7761628498     0.2440992711
   29      H      -3.0416687944     1.5060215902     0.9519580056
   30      H      -2.3811117793     1.7903170842    -2.0191289085
   31      H      -3.9270797813     2.1935164479    -1.2644388274
   32      H      -3.3782779507     0.5137866848    -1.3218302515
 ----------------------------------------------------------------

    8    -544.3007690116      6.28e-06  Convergence criterion met
 Total energy in the final basis set =     -544.3007690116

                    Orbital Energies (a.u.)
 --------------------------------------------------------------

 Alpha MOs
 -- Occupied --
-10.1869 -10.1865 -10.1861 -10.1860 -10.1842 -10.1841 -10.1818 -10.1817
-10.1773 -10.1771 -10.1762 -10.1759 -10.1733 -10.1685  -0.8676  -0.8137
 -0.7894  -0.7718  -0.7536  -0.7142  -0.7044  -0.6395  -0.6330  -0.6052
 -0.5759  -0.5709  -0.5317  -0.4958  -0.4873  -0.4557  -0.4486  -0.4438
 -0.4293  -0.4267  -0.4210  -0.4129  -0.4033  -0.3854  -0.3754  -0.3736
 -0.3558  -0.3527  -0.3492  -0.3451  -0.3382  -0.3266  -0.3160  -0.2958
 -0.2631  -0.2338  -0.2093

          Ground-State Mulliken Net Atomic Charges

     Atom                 Charge (a.u.)
  ----------------------------------------
      1 C                    -0.340525
      2 C                    -0.133360
      3 C                     0.119612
      4 C                    -0.260120
      5 C                     0.126838
      6 C                    -0.345497
      7 C                    -0.440381
      8 C                     0.118657
      9 C                    -0.135877
     10 C                    -0.338077
     11 C                    -0.267212
     12 C                     0.130752
     13 C                    -0.345297
     14 C                    -0.441563
     15 H                     0.140894
     16 H                     0.143062
     17 H                     0.133865
     18 H                     0.120105
     19 H                     0.145251
     20 H                     0.146792
     21 H                     0.150689
     22 H                     0.143988
     23 H                     0.151645
     24 H                     0.134722
     25 H                     0.144083
     26 H                     0.140610
     27 H                     0.120718
     28 H                     0.141380
     29 H                     0.143244
     30 H                     0.150335
     31 H                     0.140752
     32 H                     0.159916
  ----------------------------------------
  Sum of atomic charges =     0.000000

                    Cartesian Multipole Moments
 -----------------------------------------------------------------
    Charge (ESU x 10^10)
                 0.0000
    Dipole Moment (Debye)
         X       0.0283      Y      -0.0652      Z      -0.0630
       Tot       0.0950
    Quadrupole Moments (Debye-Ang)
        XX     -79.7672     XY      -0.5434     YY     -80.3349
        XZ      -1.8075     YZ       0.7643     ZZ     -88.7381

 Total job time:  44.69s(wall), 44.56s(cpu)
        *  Thank you very much for using Q-Chem.  Have a nice day.  *
