 Q-Chem 5.2, Q-Chem, Inc., Pleasanton, CA (2019)
 Q-Chem 5.2.1 for Intel X86 EM64T Linux

User input:
--------------------------------------------------------------
$molecule
0 1
C        -4.04841828970000    2.05026985280000    0.15620609300000
C        -3.44296368300000    1.01292088580000   -0.40538775990000
C        -2.01991300810000    0.70679570280000   -0.25557722100000
C        -1.10296147750000    1.75777626810000   -0.18460407360000
C         0.24926885660000    1.52283622730000   -0.03232912260000
C         0.69024029240000    0.21569932650000    0.04672597980000
S         2.44355611650000   -0.12133224690000    0.18716498440000
C         2.97911637350000   -0.22688796080000   -1.54889060050000
O         3.09651058850000    1.00931462290000    0.78932125540000
O         2.62698439820000   -1.41386978750000    0.79058548460000
C        -0.18788872130000   -0.84169247050000   -0.01895250650000
C        -1.55757760560000   -0.62163832240000   -0.16495226190000
C        -2.47238957050000   -1.76158559820000   -0.19941757610000
C        -2.27169715000000   -2.90165529480000    0.44806610280000
H        -5.09817679360000    2.23753786730000    0.00927961700000
H        -3.52785150830000    2.73598271300000    0.80338532520000
H        -4.02141954730000    0.33098399940000   -1.01382953130000
H        -1.46454027570000    2.77140827410000   -0.26691208870000
H         0.96553111100000    2.32598037770000    0.03662363610000
H         2.77205979760000    0.72400307240000   -2.02187672500000
H         2.43085470150000   -1.03200759190000   -2.02009696660000
H         4.04199310830000   -0.43331647910000   -1.55562509770000
H         0.20790050460000   -1.84275669950000    0.04693037010000
H        -3.37234393210000   -1.64055617590000   -0.78670829710000
H        -1.41389108820000   -3.06004208140000    1.07934636060000
H        -2.97527032230000   -3.71405514730000    0.38641394890000
$end

$rem
BASIS = 6-31G*
GUI = 2
METHOD = B3LYP
PRINT_ORBITALS false
MOLDEN_FORMAT false
--------------------------------------------------------------

             Standard Nuclear Orientation (Angstroms)
    I     Atom           X                Y                Z
 ----------------------------------------------------------------
    1      C       4.1390694639    -1.7258312613     0.3330195676
    2      C       3.4638830406    -0.7709874984    -0.2918424155
    3      C       2.0196918304    -0.5675453677    -0.1728798316
    4      C       1.1848123642    -1.6804695282    -0.0513333971
    5      C      -0.1833683667    -1.5422987948     0.0747685295
    6      C      -0.7239349554    -0.2706467086     0.0758309133
    7      S      -2.4996280788    -0.0623984407     0.1805990618
    8      C      -3.0178980103    -0.0949607430    -1.5635889344
    9      O      -3.0724845130    -1.2048016508     0.8394271675
   10      O      -2.7894829043     1.2436718811     0.7084058664
   11      C       0.0716769435     0.8459631838    -0.0411549633
   12      C       1.4560407397     0.7243043178    -0.1616680185
   13      C       2.2814922987     1.9276553400    -0.2518047020
   14      C       1.9854689293     3.0830632716     0.3284315874
   15      H       5.2019759008    -1.8395477923     0.2067338915
   16      H       3.6636002475    -2.4126132831     1.0129403997
   17      H       3.9968255298    -0.0813544697    -0.9323336973
   18      H       1.6238512228    -2.6662390694    -0.0729429476
   19      H      -0.8370666984    -2.3931594310     0.1821989499
   20      H      -2.7323658395    -1.0518663266    -1.9802244344
   21      H      -2.5263443194     0.7225919982    -2.0743005997
   22      H      -4.0932455668     0.0282878667    -1.5919165358
   23      H      -0.4002846261     1.8156745721    -0.0355553594
   24      H       3.1960081313     1.8438894097    -0.8228742475
   25      H       1.1095193214     3.2097067824     0.9417064714
   26      H       2.6257096300     3.9425656854     0.2276488362
 ----------------------------------------------------------------

    9    -974.9238782862      7.42e-06  Convergence criterion met
 Total energy in the final basis set =     -974.9238782862

                    Orbital Energies (a.u.)
 --------------------------------------------------------------

 Alpha MOs
 -- Occupied --
-89.0877 -19.1307 -19.1306 -10.2223 -10.2189 -10.2183 -10.2167 -10.2109
-10.2099 -10.2065 -10.2055 -10.2032 -10.1960 -10.1925  -8.1177  -6.0820
 -6.0812  -6.0809  -1.1103  -1.0007  -0.8922  -0.8228  -0.8079  -0.7752
 -0.7506  -0.7404  -0.6657  -0.6462  -0.6074  -0.5836  -0.5611  -0.5327
 -0.5038  -0.4922  -0.4767  -0.4699  -0.4617  -0.4567  -0.4477  -0.4378
 -0.4341  -0.4233  -0.4113  -0.3938  -0.3856  -0.3681  -0.3528  -0.3288
 -0.3160  -0.3135  -0.3057  -0.2941  -0.2857  -0.2588  -0.2398

          Ground-State Mulliken Net Atomic Charges

     Atom                 Charge (a.u.)
  ----------------------------------------
      1 C                    -0.330976
      2 C                    -0.127029
      3 C                     0.098180
      4 C                    -0.181128
      5 C                    -0.148491
      6 C                    -0.147952
      7 S                     1.073883
      8 C                    -0.625947
      9 O                    -0.521663
     10 O                    -0.523787
     11 C                    -0.216766
     12 C                     0.106020
     13 C                    -0.120703
     14 C                    -0.335932
     15 H                     0.151075
     16 H                     0.153090
     17 H                     0.142663
     18 H                     0.144218
     19 H                     0.174632
     20 H                     0.197759
     21 H                     0.198612
     22 H                     0.216725
     23 H                     0.175713
     24 H                     0.136947
     25 H                     0.160748
     26 H                     0.150108
  ----------------------------------------
  Sum of atomic charges =     0.000000

                    Cartesian Multipole Moments
 -----------------------------------------------------------------
    Charge (ESU x 10^10)
                 0.0000
    Dipole Moment (Debye)
         X       3.9298      Y      -0.4153      Z      -3.6365
       Tot       5.3703
    Quadrupole Moments (Debye-Ang)
        XX     -89.4114     XY       0.0288     YY     -85.1161
        XZ      10.2119     YZ      -0.4951     ZZ     -89.9025

 Total job time:  42.68s(wall), 41.83s(cpu)
        *  Thank you very much for using Q-Chem.  Have a nice day.  *
