 Q-Chem 5.2, Q-Chem, Inc., Pleasanton, CA (2019)
 Q-Chem 5.2.1 for Intel X86 EM64T Linux

User input:
--------------------------------------------------------------
$molecule
0 1
C        -4.04060384490000    0.02323848720000    0.17656413450000
C        -2.91228602030000    0.71799839330000    0.27578978050000
C        -1.54834680190000    0.22778324670000    0.13862096060000
C        -0.49371795980000    1.12669506000000    0.31649644880000
C         0.83786130270000    0.76039992540000    0.22651327250000
O         1.78982654580000    1.74296033680000    0.43139154960000
C         2.29778874460000    2.29977556110000   -0.76291579680000
C         1.18756518310000   -0.56959124390000   -0.06073024070000
C         2.55631300340000   -1.06827524380000   -0.13998389500000
C         3.61568037850000   -0.54257760070000    0.46327970540000
C         0.14309818600000   -1.46833973270000   -0.27543629850000
C        -1.17535542430000   -1.08222325480000   -0.17246229910000
F        -2.10698615980000   -2.03620730160000   -0.39240496750000
H        -4.99438551560000    0.50726863820000    0.30347496700000
H        -4.07026309710000   -1.03110268520000   -0.02854590270000
H        -2.96924168950000    1.77875478140000    0.48928947910000
H        -0.71584101740000    2.15907922160000    0.54521131010000
H         3.03061269000000    3.04636364500000   -0.46269639370000
H         1.50183808690000    2.78092398080000   -1.34255918590000
H         2.78273273780000    1.53998331000000   -1.38488896320000
H         2.66687391460000   -1.97863025930000   -0.71769818230000
H         3.54431226160000    0.33893610530000    1.07573396880000
H         4.59026416670000   -0.99147128220000    0.36910398050000
H         0.35996133180000   -2.49965968360000   -0.51108603990000
$end

$rem
BASIS = 6-31G*
GUI = 2
METHOD = B3LYP
PRINT_ORBITALS false
MOLDEN_FORMAT false
--------------------------------------------------------------

             Standard Nuclear Orientation (Angstroms)
    I     Atom           X                Y                Z
 ----------------------------------------------------------------
    1      C       4.0301984992     0.6647594618    -0.1102413767
    2      C       2.8035040143     1.1691412061    -0.1906022249
    3      C       1.5381595726     0.4541741648    -0.1058558950
    4      C       0.3510867649     1.1762871556    -0.2519213243
    5      C      -0.9024108939     0.5914166273    -0.2067271389
    6      O      -2.0018215560     1.4143525450    -0.3731920482
    7      C      -2.6049547816     1.8093241285     0.8411664604
    8      C      -1.0300509132    -0.7924519369    -0.0010721543
    9      C      -2.2982446670    -1.5131645933     0.0252971264
   10      C      -3.4247113239    -1.1344640980    -0.5664824141
   11      C       0.1466588238    -1.5182268946     0.1815853149
   12      C       1.3840482328    -0.9152381782     0.1243004129
   13      F       2.4585555172    -1.7142597217     0.3070429506
   14      H       4.8919693395     1.3055992310    -0.1924996952
   15      H       4.2318629048    -0.3805143939     0.0357693780
   16      H       2.6862733047     2.2354632206    -0.3430637168
   17      H       0.4015648553     2.2427179256    -0.4181848884
   18      H      -3.4484497382     2.4415096508     0.5702160672
   19      H      -1.9043928769     2.3800924836     1.4612182423
   20      H      -2.9630173286     0.9451126852     1.4105831398
   21      H      -2.2618325009    -2.4614871406     0.5488257958
   22      H      -3.4947158166    -0.2189546099    -1.1270194735
   23      H      -4.3125225509    -1.7422140250    -0.5153021821
   24      H       0.1011332324    -2.5831501496     0.3549264444
 ----------------------------------------------------------------

    9    -600.7950021511      2.20e-06  Convergence criterion met
 Total energy in the final basis set =     -600.7950021511

                    Orbital Energies (a.u.)
 --------------------------------------------------------------

 Alpha MOs
 -- Occupied --
-24.7078 -19.1645 -10.2707 -10.2431 -10.2322 -10.2060 -10.2053 -10.1953
-10.1944 -10.1942 -10.1937 -10.1802 -10.1791  -1.2190  -1.0550  -0.8726
 -0.8138  -0.7725  -0.7558  -0.7257  -0.6880  -0.6386  -0.6226  -0.5815
 -0.5721  -0.5212  -0.5126  -0.5064  -0.4690  -0.4635  -0.4598  -0.4554
 -0.4452  -0.4374  -0.4256  -0.4029  -0.3991  -0.3886  -0.3705  -0.3612
 -0.3433  -0.3381  -0.3221  -0.2720  -0.2698  -0.2451  -0.2143

          Ground-State Mulliken Net Atomic Charges

     Atom                 Charge (a.u.)
  ----------------------------------------
      1 C                    -0.357469
      2 C                    -0.110251
      3 C                     0.126143
      4 C                    -0.256327
      5 C                     0.284432
      6 O                    -0.527454
      7 C                    -0.209248
      8 C                     0.172335
      9 C                    -0.137742
     10 C                    -0.343031
     11 C                    -0.294815
     12 C                     0.326329
     13 F                    -0.294318
     14 H                     0.140966
     15 H                     0.162709
     16 H                     0.131311
     17 H                     0.141020
     18 H                     0.159866
     19 H                     0.141769
     20 H                     0.151345
     21 H                     0.132980
     22 H                     0.173666
     23 H                     0.140598
     24 H                     0.145186
  ----------------------------------------
  Sum of atomic charges =     0.000000

                    Cartesian Multipole Moments
 -----------------------------------------------------------------
    Charge (ESU x 10^10)
                 0.0000
    Dipole Moment (Debye)
         X      -1.0435      Y       0.5727      Z       1.0524
       Tot       1.5889
    Quadrupole Moments (Debye-Ang)
        XX     -70.3913     XY       2.6874     YY     -69.8577
        XZ      -2.9043     YZ       0.5344     ZZ     -77.5770

 Total job time:  33.03s(wall), 32.92s(cpu)
        *  Thank you very much for using Q-Chem.  Have a nice day.  *
