 Q-Chem 5.2, Q-Chem, Inc., Pleasanton, CA (2019)
 Q-Chem 5.2.1 for Intel X86 EM64T Linux

User input:
--------------------------------------------------------------
$molecule
0 1
C        -3.69903734490000    0.14093716720000    0.00406416670000
C        -2.55717113330000    0.81756776210000   -0.00134830020000
C        -1.23006871590000    0.23550208480000   -0.00154810970000
C        -0.89867527620000   -1.09742584200000   -0.00107260660000
S         0.79738055410000   -1.31659550880000   -0.00057300190000
C         0.97071102300000    0.44494603280000   -0.00091960730000
C         2.25376005710000    1.09156439120000    0.00016071820000
C         3.41964017430000    0.45394275420000    0.00307806370000
N        -0.15562469380000    1.06578054710000   -0.00173874450000
H        -4.64868233640000    0.64674231560000    0.00412435560000
H        -3.73184024100000   -0.93535202290000    0.00884272110000
H        -2.55440723950000    1.89851296060000   -0.00566563680000
H        -1.54894947580000   -1.94801182690000   -0.00120068800000
H         2.20028699400000    2.17146297970000   -0.00125163740000
H         3.47414698740000   -0.62276078880000    0.00459519090000
H         4.35385614410000    0.98666210200000    0.00417416620000
$end

$rem
BASIS = 6-31G*
GUI = 2
METHOD = B3LYP
PRINT_ORBITALS false
MOLDEN_FORMAT false
--------------------------------------------------------------

             Standard Nuclear Orientation (Angstroms)
    I     Atom           X                Y                Z
 ----------------------------------------------------------------
    1      C       3.6803688681     0.1649667770    -0.0039640597
    2      C       2.5313066794     0.8293043041     0.0013687193
    3      C       1.2105275081     0.2330295066     0.0016246706
    4      C       0.8934583435    -1.1033782644     0.0012922811
    5      S      -0.8001476431    -1.3407376939     0.0008073876
    6      C      -0.9923732655     0.4188422164     0.0009615754
    7      C      -2.2822880074     1.0516533345    -0.0001959341
    8      C      -3.4412579080     0.4015557011    -0.0030502323
    9      N       0.1272346878     1.0517290695     0.0017192777
   10      H       4.6245307904     0.6809345220    -0.0040741289
   11      H       3.7247208067    -0.9109088954    -0.0086254412
   12      H       2.5169420471     1.9101580498     0.0055685382
   13      H       1.5528237112    -1.9469364013     0.0015163185
   14      H      -2.2404076702     2.1320637586     0.0010993198
   15      H      -3.4842062248    -0.6756709672    -0.0044506106
   16      H      -4.3811372936     0.9242180972    -0.0042092632
 ----------------------------------------------------------------

    9    -723.8493368752      8.01e-06  Convergence criterion met
 Total energy in the final basis set =     -723.8493368752

                    Orbital Energies (a.u.)
 --------------------------------------------------------------

 Alpha MOs
 -- Occupied --
-88.9145 -14.3317 -10.2529 -10.2235 -10.2189 -10.2048 -10.1954 -10.1917
-10.1828  -7.9767  -5.9404  -5.9369  -5.9341  -0.9754  -0.8171  -0.8038
 -0.7816  -0.7135  -0.6321  -0.6183  -0.5484  -0.5430  -0.4996  -0.4799
 -0.4437  -0.4282  -0.4252  -0.4035  -0.3928  -0.3756  -0.3480  -0.3264
 -0.2974  -0.2741  -0.2681  -0.2132

          Ground-State Mulliken Net Atomic Charges

     Atom                 Charge (a.u.)
  ----------------------------------------
      1 C                    -0.347733
      2 C                    -0.091278
      3 C                     0.324932
      4 C                    -0.398147
      5 S                     0.240815
      6 C                     0.087001
      7 C                    -0.064904
      8 C                    -0.356270
      9 N                    -0.482266
     10 H                     0.148269
     11 H                     0.137161
     12 H                     0.146294
     13 H                     0.177507
     14 H                     0.161960
     15 H                     0.159572
     16 H                     0.157087
  ----------------------------------------
  Sum of atomic charges =     0.000000

                    Cartesian Multipole Moments
 -----------------------------------------------------------------
    Charge (ESU x 10^10)
                 0.0000
    Dipole Moment (Debye)
         X      -0.2974      Y      -0.9576      Z      -0.0017
       Tot       1.0027
    Quadrupole Moments (Debye-Ang)
        XX     -50.1147     XY      -2.4585     YY     -56.9757
        XZ       0.0031     YZ       0.0105     ZZ     -63.0842

 Total job time:  14.61s(wall), 14.54s(cpu)
        *  Thank you very much for using Q-Chem.  Have a nice day.  *
