 Q-Chem 5.2, Q-Chem, Inc., Pleasanton, CA (2019)
 Q-Chem 5.2.1 for Intel X86 EM64T Linux

User input:
--------------------------------------------------------------
$molecule
0 1
C        -4.55748646990000    0.08636126310000    0.69906088100000
C        -3.69778072180000   -0.82264215910000    0.25615304210000
C        -2.28636287920000   -0.61030014750000   -0.04177740210000
C        -1.47297560200000   -1.71437458780000   -0.30183174360000
C        -0.13578838440000   -1.54486093260000   -0.59664527360000
C         0.45055065370000   -0.28004787000000   -0.63258889490000
C         1.90843582640000   -0.17122342130000   -0.96675950110000
C         2.82740332280000   -0.32357896100000    0.24714658760000
O         3.93603313800000    0.12524770530000    0.28369070670000
O         2.32468634670000   -1.02553442300000    1.26972394400000
C        -0.34960910590000    0.83866558980000   -0.36148562310000
C         0.14830545170000    2.21829969970000   -0.36281389720000
C         1.27717874750000    2.64919834980000    0.18101522620000
C        -1.70329366050000    0.65191022910000   -0.09617519280000
H        -5.58492235130000   -0.16608124490000    0.89685960750000
H        -4.27943628580000    1.10865041960000    0.89007533810000
H        -4.03958061210000   -1.83925567300000    0.10369094200000
H        -1.89556797590000   -2.70832832850000   -0.28107928500000
H         0.46751694260000   -2.41320902570000   -0.82885376930000
H         2.14477781680000    0.77949963170000   -1.44527971800000
H         2.19278393220000   -0.97348424750000   -1.65521658500000
H         1.40732538330000   -1.30003584490000    1.10052021240000
H        -0.53071775230000    2.93437482850000   -0.81082664390000
H         1.97017743350000    2.00244337050000    0.69064210700000
H         1.54221749530000    3.69263063700000    0.15731056680000
H        -2.31130764400000    1.52632281920000    0.07933239860000
$end

$rem
BASIS = 6-31G*
GUI = 2
METHOD = B3LYP
PRINT_ORBITALS false
MOLDEN_FORMAT false
--------------------------------------------------------------

             Standard Nuclear Orientation (Angstroms)
    I     Atom           X                Y                Z
 ----------------------------------------------------------------
    1      C       4.4952420260    -0.4855047606     0.6573218214
    2      C       3.7190483969     0.4933282649     0.2090385326
    3      C       2.2904459737     0.4097759848    -0.0703646509
    4      C       1.5808329109     1.5812039892    -0.3394617052
    5      C       0.2301749299     1.5333750697    -0.6172295298
    6      C      -0.4723234859     0.3286981678    -0.6265586586
    7      C      -1.9379401052     0.3520073295    -0.9433654443
    8      C      -2.8238332551     0.6080546781     0.2776646718
    9      O      -3.9690682059     0.2657271528     0.3332496420
   10      O      -2.2452815963     1.2750766512     1.2833932356
   11      C       0.2228853859    -0.8558968067    -0.3460380692
   12      C      -0.4019061137    -2.1826450537    -0.3198537385
   13      C      -1.5594651928    -2.4976072176     0.2428491083
   14      C       1.5912225185    -0.7928937275    -0.0982212697
   15      H       5.5441128437    -0.3275428599     0.8400623263
   16      H       4.1251007023    -1.4742426679     0.8677173972
   17      H       4.1525915608     1.4710194195     0.0365994858
   18      H       2.0947886023     2.5313663460    -0.3392155911
   19      H      -0.2920106613     2.4508666465    -0.8569333654
   20      H      -2.2679825994    -0.5794555317    -1.4039762867
   21      H      -2.1543072081     1.1669570776    -1.6415714453
   22      H      -1.3083813455     1.4598029588     1.1000188048
   23      H       0.2016578201    -2.9658678540    -0.7635024123
   24      H      -2.1826808514    -1.7811558122     0.7493650175
   25      H      -1.9212351419    -3.5118380727     0.2387670439
   26      H       2.1168407628    -1.7177155896     0.0848395971
 ----------------------------------------------------------------

    9    -614.9147506436      5.68e-06  Convergence criterion met
 Total energy in the final basis set =     -614.9147506436

                    Orbital Energies (a.u.)
 --------------------------------------------------------------

 Alpha MOs
 -- Occupied --
-19.1888 -19.1261 -10.3139 -10.2154 -10.2127 -10.2106 -10.2063 -10.2058
-10.2044 -10.2022 -10.2020 -10.2009 -10.1919 -10.1901  -1.1007  -1.0167
 -0.8889  -0.8258  -0.8008  -0.7722  -0.7457  -0.7144  -0.6381  -0.6345
 -0.6139  -0.5945  -0.5530  -0.5262  -0.5136  -0.4989  -0.4774  -0.4698
 -0.4567  -0.4472  -0.4442  -0.4265  -0.4248  -0.3973  -0.3899  -0.3861
 -0.3750  -0.3701  -0.3594  -0.3462  -0.3201  -0.3100  -0.2993  -0.2679
 -0.2500  -0.2328

          Ground-State Mulliken Net Atomic Charges

     Atom                 Charge (a.u.)
  ----------------------------------------
      1 C                    -0.346873
      2 C                    -0.117496
      3 C                     0.184779
      4 C                    -0.185065
      5 C                    -0.224266
      6 C                     0.060284
      7 C                    -0.457539
      8 C                     0.597355
      9 O                    -0.449131
     10 O                    -0.566547
     11 C                     0.127750
     12 C                    -0.143986
     13 C                    -0.344896
     14 C                    -0.249890
     15 H                     0.150272
     16 H                     0.147769
     17 H                     0.131803
     18 H                     0.136956
     19 H                     0.141231
     20 H                     0.195426
     21 H                     0.187332
     22 H                     0.420753
     23 H                     0.142206
     24 H                     0.175203
     25 H                     0.152912
     26 H                     0.133660
  ----------------------------------------
  Sum of atomic charges =     0.000000

                    Cartesian Multipole Moments
 -----------------------------------------------------------------
    Charge (ESU x 10^10)
                 0.0000
    Dipole Moment (Debye)
         X       4.5490      Y       0.0847      Z      -1.4298
       Tot       4.7692
    Quadrupole Moments (Debye-Ang)
        XX     -95.4367     XY       2.2180     YY     -71.9750
        XZ       6.3941     YZ      -2.2722     ZZ     -84.8575

 Total job time:  39.99s(wall), 39.87s(cpu)
        *  Thank you very much for using Q-Chem.  Have a nice day.  *
