 Q-Chem 5.2, Q-Chem, Inc., Pleasanton, CA (2019)
 Q-Chem 5.2.1 for Intel X86 EM64T Linux

User input:
--------------------------------------------------------------
$molecule
0 1
C        -4.21461641120000   -0.26417307500000   -0.13951406060000
C        -3.31541197060000    0.69129630670000    0.06160140920000
C        -1.86623257470000    0.53251987010000    0.05205157460000
C        -1.21618608080000   -0.69008311320000   -0.10894156420000
C         0.17413337190000   -0.75379162060000   -0.12229046900000
C         0.86679860710000   -2.02417851010000   -0.31181165930000
C         0.40620683100000   -3.18949549940000    0.12345526380000
C         0.87790012010000    0.45902693530000    0.01360578660000
C         2.36454920900000    0.50130213460000    0.04255554860000
O         3.05267172790000   -0.36979017530000    0.49895341320000
O         2.92526564590000    1.61068562640000   -0.48026203880000
C         0.13155912280000    1.62393961910000    0.19978644020000
N        -1.18049133250000    1.66784076240000    0.21820095010000
H        -5.26917692490000   -0.05027027840000   -0.11433752240000
H        -3.94730204080000   -1.28821086190000   -0.33877477600000
H        -3.62998763370000    1.70849597920000    0.25048285040000
H        -1.78648672520000   -1.59451262340000   -0.24195150440000
H         1.82591236220000   -1.97438407080000   -0.80624121130000
H        -0.51437025130000   -3.27576488880000    0.67731890730000
H         0.95560634510000   -4.10138931280000   -0.03177045910000
H         2.27394832490000    2.22644435580000   -0.84155713920000
H         0.61738321450000    2.57854849380000    0.37606913000000
$end

$rem
BASIS = 6-31G*
GUI = 2
METHOD = B3LYP
PRINT_ORBITALS false
MOLDEN_FORMAT false
--------------------------------------------------------------

             Standard Nuclear Orientation (Angstroms)
    I     Atom           X                Y                Z
 ----------------------------------------------------------------
    1      C       4.1647084687    -0.2128599547     0.1433704764
    2      C       3.2613285905     0.7381319923    -0.0602392236
    3      C       1.8129207863     0.5723095016    -0.0539295650
    4      C       1.1684636307    -0.6533700622     0.1061387684
    5      C      -0.2215563112    -0.7238376218     0.1163383700
    6      C      -0.9084643916    -1.9974951288     0.3048591985
    7      C      -0.4412135624    -3.1607519493    -0.1288180965
    8      C      -0.9309026568     0.4854807381    -0.0217237320
    9      C      -2.4176696913     0.5205078800    -0.0540916080
   10      O      -3.1004996956    -0.3541273085    -0.5116611616
   11      O      -2.9849719506     1.6273838817     0.4669329093
   12      C      -0.1898140686     1.6539280023    -0.2067328561
   13      N       1.1220459687     1.7042052779    -0.2221678861
   14      H       5.2182706473     0.0061608730     0.1205066518
   15      H       3.9019242490    -1.2380970227     0.3424900449
   16      H       3.5713829376     1.7567656717    -0.2488683556
   17      H       1.7428519941    -1.5549538474     0.2408677342
   18      H      -1.8689380034    -1.9521470002     0.7970718065
   19      H       0.4810374052    -3.2427887733    -0.6805359772
   20      H      -0.9865236955    -4.0752388546     0.0255701697
   21      H      -2.3374866982     2.2464667917     0.8294331347
   22      H      -0.6798722137     2.6060822449    -0.3845643806
 ----------------------------------------------------------------

    9    -591.6406640759      7.44e-06  Convergence criterion met
 Total energy in the final basis set =     -591.6406640759

                    Orbital Energies (a.u.)
 --------------------------------------------------------------

 Alpha MOs
 -- Occupied --
-19.2004 -19.1384 -14.3401 -10.3263 -10.2448 -10.2434 -10.2328 -10.2216
-10.2103 -10.2023 -10.2015 -10.1995 -10.1953  -1.1098  -1.0271  -0.9680
 -0.8496  -0.8194  -0.7752  -0.7557  -0.6821  -0.6615  -0.6300  -0.5992
 -0.5786  -0.5528  -0.5235  -0.5002  -0.4711  -0.4666  -0.4547  -0.4485
 -0.4430  -0.4299  -0.4195  -0.4034  -0.3827  -0.3792  -0.3643  -0.3383
 -0.3235  -0.3143  -0.2864  -0.2649  -0.2584  -0.2507

          Ground-State Mulliken Net Atomic Charges

     Atom                 Charge (a.u.)
  ----------------------------------------
      1 C                    -0.341242
      2 C                    -0.090747
      3 C                     0.311131
      4 C                    -0.235327
      5 C                     0.150035
      6 C                    -0.093031
      7 C                    -0.337284
      8 C                    -0.024893
      9 C                     0.541592
     10 O                    -0.438656
     11 O                    -0.566493
     12 C                    -0.017847
     13 N                    -0.487506
     14 H                     0.157147
     15 H                     0.149622
     16 H                     0.152212
     17 H                     0.142404
     18 H                     0.163796
     19 H                     0.148717
     20 H                     0.157347
     21 H                     0.416163
     22 H                     0.142860
  ----------------------------------------
  Sum of atomic charges =     0.000000

                    Cartesian Multipole Moments
 -----------------------------------------------------------------
    Charge (ESU x 10^10)
                 0.0000
    Dipole Moment (Debye)
         X       3.2421      Y      -0.3211      Z       1.5079
       Tot       3.5900
    Quadrupole Moments (Debye-Ang)
        XX     -81.9500     XY      -5.6614     YY     -66.7199
        XZ      -3.6476     YZ       0.8210     ZZ     -75.7190

 Total job time:  33.67s(wall), 33.45s(cpu)
        *  Thank you very much for using Q-Chem.  Have a nice day.  *
