 Q-Chem 5.2, Q-Chem, Inc., Pleasanton, CA (2019)
 Q-Chem 5.2.1 for Intel X86 EM64T Linux

User input:
--------------------------------------------------------------
$molecule
0 1
C         3.92736659310000   -0.64944540520000    0.03936299480000
C         2.98595463030000    0.28657912990000    0.07615834430000
C         1.54596792730000    0.07927395750000    0.01177664500000
C         0.95615680190000   -1.18171397450000   -0.08118363540000
C        -0.41406862490000   -1.30883653900000   -0.13941934020000
C        -1.25436202820000   -0.19546932920000   -0.10828411920000
C        -2.70405064270000   -0.35842114890000   -0.18235778440000
C        -3.37714109830000   -1.40014184880000    0.28886557310000
C        -0.67543926390000    1.07971039470000   -0.01911747080000
C        -1.52545076830000    2.31479789930000    0.03369182690000
C         0.70235366530000    1.19060015480000    0.04204969790000
H         4.97203260380000   -0.39474352650000    0.09359874520000
H         3.70391530680000   -1.69890234710000   -0.04632888750000
H         3.28606670940000    1.32453553840000    0.16127821480000
H         1.57126778250000   -2.06750261690000   -0.11178840170000
H        -0.85193329910000   -2.29170639850000   -0.23239228540000
H        -3.24739362940000    0.44999223640000   -0.65376568510000
H        -2.89132085900000   -2.21515040160000    0.79879653340000
H        -4.44797804720000   -1.46839263830000    0.19830209880000
H        -2.25777779630000    2.24515399110000    0.83667260480000
H        -2.06474812000000    2.45083228370000   -0.90406450940000
H        -0.90957812640000    3.19504067390000    0.20154074540000
H         1.14390996310000    2.17574869730000    0.11644058410000
$end

$rem
BASIS = 6-31G*
GUI = 2
METHOD = B3LYP
PRINT_ORBITALS false
MOLDEN_FORMAT false
--------------------------------------------------------------

             Standard Nuclear Orientation (Angstroms)
    I     Atom           X                Y                Z
 ----------------------------------------------------------------
    1      C       3.9448861275    -0.6308364098     0.0358614149
    2      C       2.9964663099     0.2979826850     0.0751965221
    3      C       1.5580975747     0.0800824480     0.0096449328
    4      C       0.9777946315    -1.1850009218    -0.0874215577
    5      C      -0.3914184162    -1.3222169161    -0.1465541609
    6      C      -1.2400509251    -0.2152850673    -0.1122949057
    7      C      -2.6884506712    -0.3888762611    -0.1874051923
    8      C      -3.3538703660    -1.4370658599     0.2803548161
    9      C      -0.6707411865     1.0639196701    -0.0189822711
   10      C      -1.5300121082     2.2924280122     0.0373227935
   11      C       0.7061599096     1.1849511047     0.0430345049
   12      H       4.9875932710    -0.3684748102     0.0912675644
   13      H       3.7293433597    -1.6816703010    -0.0531492428
   14      H       3.2887541790     1.3378931816     0.1636279589
   15      H       1.5995436790    -2.0660523085    -0.1205314523
   16      H      -0.8218655207    -2.3080516476    -0.2427195110
   17      H      -3.2376798754     0.4168904022    -0.6565177344
   18      H      -2.8621261218    -2.2499778425     0.7879486864
   19      H      -4.4241338421    -1.5130666565     0.1891865382
   20      H      -2.2620734576     2.2148148040     0.8398149430
   21      H      -2.0699907555     2.4273077344    -0.9002082484
   22      H      -0.9208180553     3.1767430452     0.2081128430
   23      H       1.1402878595     2.1731494954     0.1206262746
 ----------------------------------------------------------------

    8    -426.3617703306      5.41e-06  Convergence criterion met
 Total energy in the final basis set =     -426.3617703306

                    Orbital Energies (a.u.)
 --------------------------------------------------------------

 Alpha MOs
 -- Occupied --
-10.1916 -10.1900 -10.1888 -10.1880 -10.1872 -10.1825 -10.1808 -10.1804
-10.1802 -10.1789 -10.1769  -0.8662  -0.8075  -0.7737  -0.7598  -0.7169
 -0.6838  -0.6289  -0.6032  -0.5642  -0.5412  -0.5058  -0.4770  -0.4651
 -0.4391  -0.4283  -0.4210  -0.4162  -0.4055  -0.3920  -0.3752  -0.3655
 -0.3577  -0.3335  -0.3303  -0.3095  -0.2662  -0.2435  -0.2083

          Ground-State Mulliken Net Atomic Charges

     Atom                 Charge (a.u.)
  ----------------------------------------
      1 C                    -0.354523
      2 C                    -0.114129
      3 C                     0.195175
      4 C                    -0.189650
      5 C                    -0.186634
      6 C                     0.107747
      7 C                    -0.127718
      8 C                    -0.339543
      9 C                     0.131966
     10 C                    -0.535870
     11 C                    -0.273202
     12 H                     0.142968
     13 H                     0.142116
     14 H                     0.125357
     15 H                     0.123939
     16 H                     0.128043
     17 H                     0.131380
     18 H                     0.144259
     19 H                     0.141968
     20 H                     0.167611
     21 H                     0.163077
     22 H                     0.156487
     23 H                     0.119177
  ----------------------------------------
  Sum of atomic charges =     0.000000

                    Cartesian Multipole Moments
 -----------------------------------------------------------------
    Charge (ESU x 10^10)
                 0.0000
    Dipole Moment (Debye)
         X      -0.3474      Y       0.3344      Z      -0.0185
       Tot       0.4825
    Quadrupole Moments (Debye-Ang)
        XX     -60.4459     XY      -0.3237     YY     -59.5825
        XZ       0.5346     YZ      -0.4593     ZZ     -69.5579

 Total job time:  22.61s(wall), 22.52s(cpu)
        *  Thank you very much for using Q-Chem.  Have a nice day.  *
