 Q-Chem 5.2, Q-Chem, Inc., Pleasanton, CA (2019)
 Q-Chem 5.2.1 for Intel X86 EM64T Linux

User input:
--------------------------------------------------------------
$molecule
0 1
C        -4.50539049690000   -1.38276203970000    0.28747984980000
C        -3.64186918910000   -0.40624971250000    0.53806167070000
C        -2.24583382930000   -0.35472141620000    0.12231297890000
C        -1.58828898800000   -1.42240614950000   -0.49031939860000
C        -0.26264633500000   -1.31250971980000   -0.85192147240000
C         0.45765297720000   -0.14045463590000   -0.64401084770000
C         1.92379758070000   -0.12969479110000   -0.99133358300000
C         2.72476483220000   -0.55171042260000    0.23734123160000
O         3.34893525300000   -1.56829107210000    0.31046256080000
O         2.67399287870000    0.31559057570000    1.25808152440000
C        -0.18619201360000    0.94040687500000   -0.03099286920000
C         0.46472017240000    2.23554849350000    0.24873631900000
C         1.04005781800000    3.01539703280000   -0.65503101130000
C        -1.51616481450000    0.80835768610000    0.35248710500000
H        -5.52317434260000   -1.33099507090000    0.63395701870000
H        -4.24302682490000   -2.26479031240000   -0.27097725040000
H        -3.97640510970000    0.45968330950000    1.09656654020000
H        -2.10933421270000   -2.34898365580000   -0.67046224760000
H         0.23747147830000   -2.15611830530000   -1.30455927800000
H         2.26263028810000    0.85901371160000   -1.29974498790000
H         2.12778161170000   -0.84413778990000   -1.78834665460000
H         2.11029266560000    1.08194512560000    1.05967884460000
H         0.37002820640000    2.58246358250000    1.27279735550000
H         1.09086214230000    2.74397355660000   -1.69700265200000
H         1.45943084270000    3.97180934240000   -0.39209298640000
H        -1.99967074730000    1.64910377280000    0.83132944840000
$end

$rem
BASIS = 6-31G*
GUI = 2
METHOD = B3LYP
PRINT_ORBITALS false
MOLDEN_FORMAT false
--------------------------------------------------------------

             Standard Nuclear Orientation (Angstroms)
    I     Atom           X                Y                Z
 ----------------------------------------------------------------
    1      C       4.6429967465    -0.6166887757    -0.2503355561
    2      C       3.6305163176     0.2095407113    -0.4832837026
    3      C       2.2394067709     0.0072829712    -0.0981565788
    4      C       1.7626574197    -1.1806130942     0.4579435308
    5      C       0.4318885669    -1.3112565565     0.7928289958
    6      C      -0.4733319262    -0.2700514929     0.6132769948
    7      C      -1.9254969275    -0.5214530801     0.9268737198
    8      C      -2.6231877668    -1.0212569346    -0.3351528770
    9      O      -3.0645778722    -2.1247093340    -0.4614035691
   10      O      -2.7037086058    -0.1162000394    -1.3205908350
   11      C      -0.0123111569     0.9285232725     0.0569790513
   12      C      -0.8688740314     2.1056392102    -0.1880209811
   13      C      -1.5827800362     2.7389179215     0.7313640460
   14      C       1.3268381643     1.0389913560    -0.3005086102
   15      H       5.6427388824    -0.3794578071    -0.5710337530
   16      H       4.5250313724    -1.5527769020     0.2678401800
   17      H       3.8223294187     1.1419677122    -1.0004583273
   18      H       2.4303451500    -2.0125729972     0.6145361934
   19      H       0.0748488450    -2.2452620532     1.2012780439
   20      H      -2.4321166802     0.3821674658     1.2649211082
   21      H      -2.0182435269    -1.2925595805     1.6911125261
   22      H      -2.2814893725     0.7254240666    -1.0801316222
   23      H      -0.8177809163     2.5057926348    -1.1956341927
   24      H      -1.6037255937     2.4197728794     1.7607640696
   25      H      -2.1539990400     3.6208652164     0.4955410965
   26      H       1.6684204393     1.9684612999    -0.7356282858
 ----------------------------------------------------------------

    9    -614.9112025597      4.63e-06  Convergence criterion met
 Total energy in the final basis set =     -614.9112025597

                    Orbital Energies (a.u.)
 --------------------------------------------------------------

 Alpha MOs
 -- Occupied --
-19.1844 -19.1247 -10.3111 -10.2164 -10.2125 -10.2110 -10.2097 -10.2050
-10.2044 -10.1991 -10.1977 -10.1974 -10.1968 -10.1873  -1.0966  -1.0141
 -0.8852  -0.8255  -0.8043  -0.7687  -0.7496  -0.7107  -0.6418  -0.6229
 -0.6129  -0.6013  -0.5525  -0.5250  -0.5054  -0.4999  -0.4884  -0.4676
 -0.4544  -0.4486  -0.4394  -0.4284  -0.4185  -0.3991  -0.3965  -0.3855
 -0.3770  -0.3690  -0.3517  -0.3458  -0.3190  -0.3086  -0.2958  -0.2653
 -0.2555  -0.2272

          Ground-State Mulliken Net Atomic Charges

     Atom                 Charge (a.u.)
  ----------------------------------------
      1 C                    -0.350959
      2 C                    -0.112426
      3 C                     0.184362
      4 C                    -0.175243
      5 C                    -0.178053
      6 C                     0.116583
      7 C                    -0.473362
      8 C                     0.598841
      9 O                    -0.435272
     10 O                    -0.571454
     11 C                     0.094719
     12 C                    -0.233971
     13 C                    -0.305193
     14 C                    -0.250485
     15 H                     0.148360
     16 H                     0.145832
     17 H                     0.129568
     18 H                     0.134288
     19 H                     0.143405
     20 H                     0.171332
     21 H                     0.180651
     22 H                     0.421230
     23 H                     0.162764
     24 H                     0.163483
     25 H                     0.160274
     26 H                     0.130728
  ----------------------------------------
  Sum of atomic charges =     0.000000

                    Cartesian Multipole Moments
 -----------------------------------------------------------------
    Charge (ESU x 10^10)
                 0.0000
    Dipole Moment (Debye)
         X       2.5816      Y       3.6298      Z       1.7713
       Tot       4.7935
    Quadrupole Moments (Debye-Ang)
        XX     -85.8941     XY     -13.1549     YY     -79.7714
        XZ      -7.7118     YZ      -6.0295     ZZ     -82.7151

 Total job time:  39.57s(wall), 39.45s(cpu)
        *  Thank you very much for using Q-Chem.  Have a nice day.  *
