 Q-Chem 5.2, Q-Chem, Inc., Pleasanton, CA (2019)
 Q-Chem 5.2.1 for Intel X86 EM64T Linux

User input:
--------------------------------------------------------------
$molecule
0 1
C         0.97176311310000    1.25120799140000    2.33995832080000
C         1.60304783170000    0.13266553820000    2.00900744920000
C         1.66651189980000   -0.45784415480000    0.68149867900000
C         2.79948437980000   -1.21597755730000    0.27536567230000
C         2.75474414920000   -1.60654937760000   -1.01967390100000
S         1.31606036000000   -1.08758871690000   -1.80154192920000
C         0.75133022220000   -0.31919550800000   -0.34192641960000
C        -0.55195685180000    0.28850195870000   -0.34292764720000
S        -1.02223523580000    1.32436259260000   -1.65904298430000
C        -2.56648857970000    1.58312119780000   -0.94758370500000
C        -2.71238360980000    0.91618954520000    0.22089677820000
C        -1.56713171670000    0.15674862420000    0.58440964340000
C        -1.47352296720000   -0.70157344320000    1.74766712210000
C        -2.28336154950000   -0.65347986160000    2.79907691080000
H         1.00414985660000    1.63527171010000    3.34467127430000
H         0.41110286430000    1.82722888860000    1.62457938450000
H         2.18739337090000   -0.39177394410000    2.75554875290000
H         3.62147394030000   -1.43316263790000    0.93470571380000
H         3.47908123860000   -2.17128308910000   -1.57226991270000
H        -3.27275443410000    2.21633985980000   -1.44685606770000
H        -3.61507937010000    0.93846322070000    0.80347105430000
H        -0.66959114410000   -1.42533861660000    1.72114685790000
H        -3.07981550730000    0.06613489820000    2.88136109810000
H        -2.16714320820000   -1.33119456270000    3.62678603820000
$end

$rem
BASIS = 6-31G*
GUI = 2
METHOD = B3LYP
PRINT_ORBITALS false
MOLDEN_FORMAT false
--------------------------------------------------------------

             Standard Nuclear Orientation (Angstroms)
    I     Atom           X                Y                Z
 ----------------------------------------------------------------
    1      C       0.0450125967    -2.1626960408    -1.7400116549
    2      C      -1.0093985235    -2.1219864018    -0.9364284235
    3      C      -1.5596580797    -0.9357389814    -0.3000005810
    4      C      -2.9503991014    -0.8401297746    -0.0170956399
    5      C      -3.3218921303     0.3641216234     0.4763078779
    6      S      -1.9881204237     1.4337788223     0.6416418962
    7      C      -0.8907360784     0.2256652944     0.0284249768
    8      C       0.5144735749     0.5282776153    -0.0123919844
    9      S       1.0524693364     2.0535640443    -0.6530092350
   10      C       2.6936867519     1.6420072498    -0.3449911964
   11      C       2.8199142853     0.4165773276     0.2152033629
   12      C       1.5764322889    -0.2396893821     0.4239149933
   13      C       1.4137771170    -1.5285763091     1.0649774829
   14      C       2.3820199944    -2.4195973466     1.2444247087
   15      H       0.3653552144    -3.0832809907    -2.1959786685
   16      H       0.6184968676    -1.2842861015    -1.9796338171
   17      H      -1.5787903666    -3.0259330950    -0.7561683260
   18      H      -3.6391725293    -1.6453552292    -0.2035590931
   19      H      -4.3011476865     0.6974562454     0.7571945484
   20      H       3.4648312019     2.3418340873    -0.5992132603
   21      H       3.7659111419    -0.0076004638     0.4978899174
   22      H       0.4121094798    -1.7462033083     1.4115985448
   23      H       3.3868882398    -2.2581333858     0.8935341336
   24      H       2.1965396572    -3.3553928690     1.7422099066
 ----------------------------------------------------------------

    9   -1259.6054010340      6.28e-06  Convergence criterion met
 Total energy in the final basis set =    -1259.6054010340

                    Orbital Energies (a.u.)
 --------------------------------------------------------------

 Alpha MOs
 -- Occupied --
-88.9082 -88.9071 -10.2233 -10.2215 -10.2130 -10.2118 -10.1987 -10.1953
-10.1910 -10.1896 -10.1892 -10.1874 -10.1765 -10.1762  -7.9698  -7.9687
 -5.9337  -5.9327  -5.9301  -5.9290  -5.9269  -5.9257  -0.9013  -0.8779
 -0.7957  -0.7858  -0.7665  -0.7220  -0.7185  -0.6964  -0.6129  -0.5988
 -0.5819  -0.5632  -0.5477  -0.5065  -0.4973  -0.4724  -0.4558  -0.4467
 -0.4208  -0.4143  -0.4071  -0.3974  -0.3895  -0.3771  -0.3715  -0.3633
 -0.3604  -0.3406  -0.3358  -0.3080  -0.2856  -0.2612  -0.2398  -0.2254
 -0.2003

          Ground-State Mulliken Net Atomic Charges

     Atom                 Charge (a.u.)
  ----------------------------------------
      1 C                    -0.326772
      2 C                    -0.126736
      3 C                     0.184480
      4 C                    -0.140093
      5 C                    -0.341204
      6 S                     0.267368
      7 C                    -0.253258
      8 C                    -0.262636
      9 S                     0.257929
     10 C                    -0.345072
     11 C                    -0.136466
     12 C                     0.185437
     13 C                    -0.090111
     14 C                    -0.353571
     15 H                     0.141502
     16 H                     0.161956
     17 H                     0.127632
     18 H                     0.141776
     19 H                     0.172443
     20 H                     0.171459
     21 H                     0.142739
     22 H                     0.141264
     23 H                     0.137714
     24 H                     0.142219
  ----------------------------------------
  Sum of atomic charges =     0.000000

                    Cartesian Multipole Moments
 -----------------------------------------------------------------
    Charge (ESU x 10^10)
                 0.0000
    Dipole Moment (Debye)
         X       0.0181      Y      -0.8793      Z      -0.0151
       Tot       0.8796
    Quadrupole Moments (Debye-Ang)
        XX     -81.7552     XY       2.6121     YY     -90.7969
        XZ      -2.5353     YZ      -0.5328     ZZ     -98.6942

 Total job time:  45.40s(wall), 45.27s(cpu)
        *  Thank you very much for using Q-Chem.  Have a nice day.  *
