 Q-Chem 5.2, Q-Chem, Inc., Pleasanton, CA (2019)
 Q-Chem 5.2.1 for Intel X86 EM64T Linux

User input:
--------------------------------------------------------------
$molecule
0 1
C        -1.11624600670000   -2.41730320440000   -0.11560573750000
C        -1.52773642140000   -1.37249320230000    0.58851644690000
C        -1.26600555410000    0.02151144470000    0.25995975110000
C        -2.27134299280000    1.01064455500000    0.44100466260000
C        -1.91832829140000    2.23426209360000   -0.01908530290000
S        -0.33499510910000    2.24230425520000   -0.68019664370000
C        -0.13251236340000    0.54845461690000   -0.32091816380000
C         1.16222718260000   -0.02146550440000   -0.60346307950000
C         1.78469755320000   -0.96486955380000    0.08974065530000
F         1.33943309980000   -1.59875789360000    1.16574129820000
F         2.99483442250000   -1.42371371450000   -0.22368406370000
H        -1.37928600150000   -3.42200991770000    0.16466269960000
H        -0.51043212860000   -2.30815302420000   -0.99971616760000
H        -2.17161944350000   -1.51871257680000    1.44623171950000
H        -3.22810702940000    0.79384799740000    0.88187485050000
H        -2.49080854020000    3.14041478630000   -0.01146221750000
H         1.72081822180000    0.41703269860000   -1.41788237820000
$end

$rem
BASIS = 6-31G*
GUI = 2
METHOD = B3LYP
PRINT_ORBITALS false
MOLDEN_FORMAT false
--------------------------------------------------------------

             Standard Nuclear Orientation (Angstroms)
    I     Atom           X                Y                Z
 ----------------------------------------------------------------
    1      C       1.0293015204    -2.2724203832    -0.8534215379
    2      C       0.0403202997    -2.0881928857     0.0095481758
    3      C      -0.8154446551    -0.9120155658     0.0725938679
    4      C      -2.2081480969    -1.0410179130     0.3287197217
    5      C      -2.8872820860     0.1269857077     0.2387941788
    6      S      -1.8568761498     1.4438652194    -0.1461328346
    7      C      -0.4636227461     0.3965337040    -0.1800228873
    8      C       0.8157559013     1.0300520398    -0.3869911473
    9      C       1.9760958459     0.6724927406     0.1457137815
   10      F       2.2085647403    -0.3526210453     0.9537683487
   11      F       3.1147621415     1.3259296796    -0.0771392971
   12      H       1.5982790241    -3.1852204601    -0.8688044908
   13      H       1.3012051120    -1.5245208341    -1.5795690233
   14      H      -0.2326482129    -2.8797467928     0.6955303503
   15      H      -2.6740666541    -1.9848641305     0.5497149877
   16      H      -3.9359698457     0.3010698906     0.3761008761
   17      H       0.8214211370     1.9371564408    -0.9741137307
 ----------------------------------------------------------------

    9    -906.2621967825      7.18e-06  Convergence criterion met
 Total energy in the final basis set =     -906.2621967825

                    Orbital Energies (a.u.)
 --------------------------------------------------------------

 Alpha MOs
 -- Occupied --
-88.9092 -24.7391 -24.7347 -10.3568 -10.2269 -10.2135 -10.2091 -10.1985
-10.1918 -10.1915 -10.1791  -7.9711  -5.9350  -5.9314  -5.9281  -1.2827
 -1.2227  -0.8935  -0.8079  -0.7922  -0.7303  -0.7122  -0.6408  -0.6022
 -0.5796  -0.5679  -0.5574  -0.5177  -0.4981  -0.4839  -0.4587  -0.4423
 -0.4389  -0.4263  -0.4117  -0.4002  -0.3869  -0.3856  -0.3689  -0.3427
 -0.2942  -0.2875  -0.2389  -0.2084

          Ground-State Mulliken Net Atomic Charges

     Atom                 Charge (a.u.)
  ----------------------------------------
      1 C                    -0.334587
      2 C                    -0.119520
      3 C                     0.156609
      4 C                    -0.127102
      5 C                    -0.347572
      6 S                     0.252076
      7 C                    -0.197247
      8 C                    -0.287833
      9 C                     0.567258
     10 F                    -0.225049
     11 F                    -0.246117
     12 H                     0.143498
     13 H                     0.146828
     14 H                     0.132890
     15 H                     0.142004
     16 H                     0.173314
     17 H                     0.170552
  ----------------------------------------
  Sum of atomic charges =     0.000000

                    Cartesian Multipole Moments
 -----------------------------------------------------------------
    Charge (ESU x 10^10)
                 0.0000
    Dipole Moment (Debye)
         X      -1.0193      Y      -0.4121      Z      -0.1833
       Tot       1.1146
    Quadrupole Moments (Debye-Ang)
        XX     -65.3553     XY       0.2305     YY     -64.7722
        XZ      -2.7922     YZ      -1.7905     ZZ     -69.7997

 Total job time:  21.52s(wall), 21.44s(cpu)
        *  Thank you very much for using Q-Chem.  Have a nice day.  *
