 Q-Chem 5.2, Q-Chem, Inc., Pleasanton, CA (2019)
 Q-Chem 5.2.1 for Intel X86 EM64T Linux

User input:
--------------------------------------------------------------
$molecule
0 1
C        -4.50683584550000    0.14524644010000    1.48142843220000
C        -3.73854700360000    0.08366601100000    0.14863250730000
C        -2.93837935840000   -1.20420996710000    0.11202641750000
C        -1.54390025590000   -1.21326473490000    0.00478038330000
N        -0.83014204450000   -0.02817033600000   -0.10102953950000
C        -1.45882691290000    1.20883001500000   -0.08975241450000
C        -2.84783720070000    1.30656468370000    0.04147796710000
C        -3.42142254070000    2.57073715960000    0.05486706240000
C        -2.66596948230000    3.72191244460000   -0.06701679920000
C        -1.29593401790000    3.61671382920000   -0.22344677190000
C        -0.69994732780000    2.37339635090000   -0.23903595730000
C         0.58074806290000   -0.08288680400000   -0.22843410860000
C         1.16116431360000   -0.47593405050000   -1.43011466630000
C         2.53419071230000   -0.52778484810000   -1.54930614460000
C         3.36393894680000   -0.18740772110000   -0.47729457290000
C         4.80177309920000   -0.26306313660000   -0.67660193620000
C         5.77039780640000    0.01244084650000    0.18472927930000
F         5.65667081110000    0.42490453010000    1.44107977030000
F         7.06256968890000   -0.09522881080000   -0.11765880990000
C         2.77106070200000    0.20623315990000    0.72468429660000
C         1.39700287920000    0.25598770990000    0.84582352460000
C        -0.86140343770000   -2.43307770290000    0.03223975160000
C        -1.54413952610000   -3.62729769510000    0.12705038400000
C        -2.92486899490000   -3.62698626330000    0.20537917330000
C        -3.60032995740000   -2.42092526580000    0.20515306380000
C        -4.72272737700000    0.08938527350000   -1.03537917210000
H        -3.80501149960000    0.13718530360000    2.31337373320000
H        -5.17213480420000   -0.70722337490000    1.58636320190000
H        -5.10282701230000    1.05144411000000    1.54448892760000
H        -4.49144967100000    2.66627330520000    0.16121519830000
H        -3.14444072940000    4.68916725810000   -0.04938158840000
H        -0.68728921330000    4.50136678540000   -0.33707606150000
H         0.36829708690000    2.30123886750000   -0.37428683190000
H         0.52700732020000   -0.74074739470000   -2.26306726220000
H         2.97598704760000   -0.83185713600000   -2.48678374370000
H         5.13610334560000   -0.58463691210000   -1.65256747010000
H         3.37999192640000    0.47171350270000    1.57284607100000
H         0.94344769950000    0.56137173680000    1.77696990430000
H         0.21675684050000   -2.44290679400000   -0.01457418220000
H        -0.99409471320000   -4.55639525270000    0.14306829220000
H        -3.47151930520000   -4.55489461680000    0.27606000940000
H        -4.67700830250000   -2.43410453660000    0.28246513520000
H        -5.38858735780000   -0.76796463690000   -0.99083888560000
H        -4.17255787300000    0.04859169410000   -1.97371624610000
H        -5.32871208190000    0.99111051890000   -1.03270236690000
$end

$rem
BASIS = 6-31G*
GUI = 2
METHOD = B3LYP
PRINT_ORBITALS false
MOLDEN_FORMAT false
--------------------------------------------------------------

             Standard Nuclear Orientation (Angstroms)
    I     Atom           X                Y                Z
 ----------------------------------------------------------------
    1      C      -4.3921831933     0.1396450885     1.4619846874
    2      C      -3.6155951450     0.0777230917     0.1340232644
    3      C      -2.8125195178    -1.2085176742     0.1042402113
    4      C      -1.4173920759    -1.2147939542     0.0055705743
    5      N      -0.7054835068    -0.0283561767    -0.0976129893
    6      C      -1.3368177343     1.2073329554    -0.0920301960
    7      C      -2.7268097077     1.3023356197     0.0305253653
    8      C      -3.3031155050     2.5653159061     0.0385180494
    9      C      -2.5493431274     3.7178988402    -0.0804328597
   10      C      -1.1781551490     3.6153552541    -0.2282929281
   11      C      -0.5794786820     2.3732738288    -0.2383790640
   12      C       0.7062741403    -0.0802890887    -0.2162722911
   13      C       1.2948831288    -0.4738796213    -1.4137827404
   14      C       2.6687214104    -0.5230145212    -1.5244658139
   15      C       3.4911540804    -0.1793154158    -0.4478865277
   16      C       4.9303407435    -0.2522361837    -0.6382507240
   17      C       5.8930770047     0.0265726662     0.2286011938
   18      F       5.7707709435     0.4406425773     1.4836167364
   19      F       7.1873047239    -0.0788204810    -0.0656884267
   20      C       2.8900802835     0.2148429487     0.7498448417
   21      C       1.5152030307     0.2618822997     0.8624724029
   22      C      -0.7325209917    -2.4331255078     0.0390283680
   23      C      -1.4133213999    -3.6286397011     0.1314168420
   24      C      -2.7945035523    -3.6311202910     0.2012671880
   25      C      -3.4724773703    -2.4264858109     0.1951056988
   26      C      -4.5924943560     0.0796294133    -1.0560152525
   27      H      -3.6954666948     0.1342847936     2.2982339123
   28      H      -5.0563254923    -0.7140684557     1.5640973061
   29      H      -4.9904489533     1.0446775983     1.5200411305
   30      H      -4.3739735984     2.6587551044     0.1381533874
   31      H      -3.0299404365     4.6841689521    -0.0671698820
   32      H      -0.5706798785     4.5011197636    -0.3394954279
   33      H       0.4897252469     2.3031669703    -0.3669621806
   34      H       0.6664108177    -0.7412519121    -2.2502191330
   35      H       3.1169040849    -0.8275338357    -2.4587615296
   36      H       5.2713326840    -0.5745397855    -1.6116673948
   37      H       3.4932325408     0.4828514821     1.6013342571
   38      H       1.0552978970     0.5676792823     1.7903628915
   39      H       0.3459247258    -2.4407532843    -0.0011511344
   40      H      -0.8614387318    -4.5565525064     0.1521891187
   41      H      -3.3396311530    -4.5600726648     0.2699668312
   42      H      -4.5495802749    -2.4418183628     0.2658259513
   43      H      -5.2568164800    -0.7790541814    -1.0142921191
   44      H      -4.0364874720     0.0386148593    -1.9908955737
   45      H      -5.2003731792     0.9800796974    -1.0583960135
 ----------------------------------------------------------------

    9   -1142.3038960018      4.33e-06  Convergence criterion met
 Total energy in the final basis set =    -1142.3038960018

                    Orbital Energies (a.u.)
 --------------------------------------------------------------

 Alpha MOs
 -- Occupied --
-24.7509 -24.7401 -14.3657 -10.3638 -10.2297 -10.2231 -10.2231 -10.2157
-10.2096 -10.2003 -10.2003 -10.1982 -10.1980 -10.1974 -10.1819 -10.1819
-10.1780 -10.1779 -10.1772 -10.1771 -10.1743 -10.1742 -10.1713 -10.1712
-10.1677 -10.1676  -1.2919  -1.2308  -0.9820  -0.8779  -0.8537  -0.8528
 -0.8117  -0.8076  -0.7638  -0.7540  -0.7524  -0.7391  -0.7213  -0.7051
 -0.6843  -0.6545  -0.6336  -0.6307  -0.6219  -0.6149  -0.5890  -0.5802
 -0.5759  -0.5438  -0.5401  -0.5394  -0.5283  -0.5253  -0.4910  -0.4738
 -0.4676  -0.4621  -0.4574  -0.4544  -0.4486  -0.4469  -0.4384  -0.4363
 -0.4348  -0.4246  -0.4240  -0.4177  -0.4134  -0.4127  -0.3941  -0.3881
 -0.3838  -0.3810  -0.3761  -0.3678  -0.3610  -0.3563  -0.3546  -0.3454
 -0.3396  -0.3183  -0.3144  -0.3089  -0.3031  -0.2675  -0.2460  -0.2399
 -0.2355  -0.2300  -0.1780

          Ground-State Mulliken Net Atomic Charges

     Atom                 Charge (a.u.)
  ----------------------------------------
      1 C                    -0.432799
      2 C                    -0.045586
      3 C                     0.126890
      4 C                     0.305816
      5 N                    -0.732039
      6 C                     0.306049
      7 C                     0.126831
      8 C                    -0.213204
      9 C                    -0.134020
     10 C                    -0.136019
     11 C                    -0.191625
     12 C                     0.189685
     13 C                    -0.125971
     14 C                    -0.207240
     15 C                     0.206661
     16 C                    -0.300966
     17 C                     0.547186
     18 F                    -0.232594
     19 F                    -0.245668
     20 C                    -0.208282
     21 C                    -0.125875
     22 C                    -0.191689
     23 C                    -0.136065
     24 C                    -0.134122
     25 C                    -0.213352
     26 C                    -0.432309
     27 H                     0.151503
     28 H                     0.142258
     29 H                     0.142176
     30 H                     0.123346
     31 H                     0.118269
     32 H                     0.123490
     33 H                     0.143997
     34 H                     0.148438
     35 H                     0.135459
     36 H                     0.162323
     37 H                     0.145646
     38 H                     0.149089
     39 H                     0.144002
     40 H                     0.123297
     41 H                     0.118267
     42 H                     0.123410
     43 H                     0.141987
     44 H                     0.151098
     45 H                     0.142253
  ----------------------------------------
  Sum of atomic charges =     0.000000

                    Cartesian Multipole Moments
 -----------------------------------------------------------------
    Charge (ESU x 10^10)
                 0.0000
    Dipole Moment (Debye)
         X       0.4948      Y      -0.2305      Z      -0.6979
       Tot       0.8861
    Quadrupole Moments (Debye-Ang)
        XX    -144.1440     XY      -1.2875     YY    -145.1512
        XZ      -4.3868     YZ       1.8107     ZZ    -147.5292

 Total job time:  163.08s(wall), 162.61s(cpu)
        *  Thank you very much for using Q-Chem.  Have a nice day.  *
