 Q-Chem 5.2, Q-Chem, Inc., Pleasanton, CA (2019)
 Q-Chem 5.2.1 for Intel X86 EM64T Linux

User input:
--------------------------------------------------------------
$molecule
0 1
C        -2.56806589240000   -2.86937799770000    0.02245206690000
C        -2.92101610350000   -1.59020501900000   -0.01496382140000
C        -2.02772168070000   -0.43647418980000   -0.00921979060000
C        -2.58409414460000    0.84494152560000   -0.00251180470000
C        -1.77907353860000    1.96718182400000    0.00451402330000
C        -0.40817066200000    1.80988784510000    0.00354364160000
F         0.36722829390000    2.91515129220000    0.01009336400000
C         0.19868162650000    0.54923870020000   -0.00455615400000
C         1.65113676190000    0.47878070310000   -0.00622629960000
C         2.41769336130000   -0.60112994660000   -0.00167169520000
F         2.03646701890000   -1.87333199010000    0.00526811460000
F         3.74600671350000   -0.55034609410000   -0.00303769560000
C        -0.64030339110000   -0.56229485070000   -0.01134267930000
H        -3.30853655100000   -3.65045192200000    0.01558903770000
H        -1.54301086930000   -3.19498855240000    0.06307971610000
H        -3.97375411410000   -1.33794070970000   -0.05020856790000
H        -3.65761078880000    0.96121428790000   -0.00168275550000
H        -2.19764824530000    2.96123202580000    0.01040131130000
H         2.17781789020000    1.42233234220000   -0.01006574190000
H        -0.20489175870000   -1.54604253490000   -0.02128126760000
$end

$rem
BASIS = 6-31G*
GUI = 2
METHOD = B3LYP
PRINT_ORBITALS false
MOLDEN_FORMAT false
--------------------------------------------------------------

             Standard Nuclear Orientation (Angstroms)
    I     Atom           X                Y                Z
 ----------------------------------------------------------------
    1      C      -2.6250485449    -2.7001410547     0.0216749086
    2      C      -2.9054154987    -1.4031132398    -0.0153457357
    3      C      -1.9485776462    -0.3015111511    -0.0092705386
    4      C      -2.4319177060     1.0091960671    -0.0021623803
    5      C      -1.5649866963     2.0843274256     0.0051869099
    6      C      -0.2051149771     1.8500949637     0.0041401898
    7      F       0.6312854945     2.9099443869     0.0110088457
    8      C       0.3297940786     0.5572795418    -0.0043545360
    9      C       1.7759779584     0.4051537388    -0.0060763937
   10      C       2.4805144551    -0.7162058677    -0.0018652540
   11      F       2.0282619120    -1.9649269341     0.0046967670
   12      F       3.8095799773    -0.7402924844    -0.0032436101
   13      C      -0.5704446212    -0.5052497703    -0.0114605674
   14      H      -3.4083227260    -3.4382817874     0.0145905161
   15      H      -1.6199528985    -3.0829628458     0.0621824073
   16      H      -3.9422799374    -1.0919642894    -0.0504919933
   17      H      -3.4971846464     1.1857281816    -0.0012756448
   18      H      -1.9269276380     3.1003665958     0.0113843568
   19      H       2.3549499818     1.3175550427    -0.0096407392
   20      H      -0.1911133983    -1.5119495342    -0.0217065424
 ----------------------------------------------------------------

    9    -684.7499561068      5.35e-06  Convergence criterion met
 Total energy in the final basis set =     -684.7499561068

                    Orbital Energies (a.u.)
 --------------------------------------------------------------

 Alpha MOs
 -- Occupied --
-24.7489 -24.7384 -24.7142 -10.3617 -10.2759 -10.2167 -10.2070 -10.2014
-10.1992 -10.1984 -10.1970 -10.1942 -10.1829  -1.2903  -1.2292  -1.2255
 -0.8800  -0.8203  -0.7936  -0.7503  -0.7311  -0.6578  -0.6383  -0.6176
 -0.5844  -0.5639  -0.5469  -0.5329  -0.5236  -0.4976  -0.4784  -0.4676
 -0.4498  -0.4490  -0.4452  -0.4435  -0.4294  -0.4163  -0.4030  -0.3859
 -0.3812  -0.3572  -0.3478  -0.3208  -0.2906  -0.2376  -0.2201

          Ground-State Mulliken Net Atomic Charges

     Atom                 Charge (a.u.)
  ----------------------------------------
      1 C                    -0.352741
      2 C                    -0.117659
      3 C                     0.188310
      4 C                    -0.200935
      5 C                    -0.193471
      6 C                     0.307103
      7 F                    -0.290516
      8 C                     0.124332
      9 C                    -0.298981
     10 C                     0.553079
     11 F                    -0.233887
     12 F                    -0.244096
     13 C                    -0.266552
     14 H                     0.146080
     15 H                     0.147094
     16 H                     0.128148
     17 H                     0.136925
     18 H                     0.146994
     19 H                     0.176522
     20 H                     0.144251
  ----------------------------------------
  Sum of atomic charges =     0.000000

                    Cartesian Multipole Moments
 -----------------------------------------------------------------
    Charge (ESU x 10^10)
                 0.0000
    Dipole Moment (Debye)
         X      -1.3163      Y      -0.0248      Z      -0.0082
       Tot       1.3166
    Quadrupole Moments (Debye-Ang)
        XX     -67.6286     XY      -0.6406     YY     -69.9407
        XZ       0.0585     YZ      -0.0415     ZZ     -74.2657

 Total job time:  26.39s(wall), 26.30s(cpu)
        *  Thank you very much for using Q-Chem.  Have a nice day.  *
