 Q-Chem 5.2, Q-Chem, Inc., Pleasanton, CA (2019)
 Q-Chem 5.2.1 for Intel X86 EM64T Linux

User input:
--------------------------------------------------------------
$molecule
0 1
C         4.08854831880000   -0.84500218200000    0.09462808500000
C         3.26132169460000    0.19172747610000    0.02953041900000
C         1.80655944300000    0.13766931380000    0.02052802860000
C         1.06872844620000   -1.04367293400000    0.08085658280000
C        -0.31871604360000   -1.07079875560000    0.07389195800000
C        -1.05146697650000   -2.33049841750000    0.14603506120000
C        -0.60067616120000   -3.51034304040000   -0.25915584130000
C        -1.02005915310000    0.14960003120000    0.01697655620000
S        -2.78260897310000    0.09690952110000    0.00107662380000
C        -3.27673289950000    1.84211903830000    0.05546948200000
C        -0.31444609430000    1.34144885030000   -0.05107586220000
C         1.06464165730000    1.31806056570000   -0.04798250480000
F         1.70396518550000    2.50845929990000   -0.11025897470000
H         5.15539014880000   -0.70426981610000    0.09531846250000
H         3.74761606360000   -1.86452086910000    0.15024594030000
H         3.67360557770000    1.19102940190000   -0.02371473370000
H         1.59508338590000   -1.98082371480000    0.15446507670000
H        -2.05306126620000   -2.25247275200000    0.54987254710000
H         0.37053815860000   -3.63611310790000   -0.70747726660000
H        -1.20141863370000   -4.39882802870000   -0.17197054920000
H        -4.36092399050000    1.82947663150000    0.11288028720000
H        -2.96476030990000    2.35077310040000   -0.85208415380000
H        -2.86719017540000    2.31913673360000    0.94089649440000
H        -0.80356038260000    2.29956889510000   -0.10749823300000
$end

$rem
BASIS = 6-31G*
GUI = 2
METHOD = B3LYP
PRINT_ORBITALS false
MOLDEN_FORMAT false
--------------------------------------------------------------

             Standard Nuclear Orientation (Angstroms)
    I     Atom           X                Y                Z
 ----------------------------------------------------------------
    1      C       4.1356542206    -0.5647578683     0.0970209898
    2      C       3.2484298125     0.4208782350     0.0284330936
    3      C       1.7994380557     0.2806116923     0.0192286193
    4      C       1.1329378799    -0.9422133780     0.0831033704
    5      C      -0.2504527171    -1.0515963969     0.0758687480
    6      C      -0.9072400657    -2.3523021838     0.1518070784
    7      C      -0.3870929314    -3.5046027945    -0.2495351969
    8      C      -1.0229112155     0.1248759455     0.0149145472
    9      S      -2.7792268347    -0.0323005470    -0.0012706916
   10      C      -3.3760038820     1.6806951265     0.0474763580
   11      C      -0.3891919300     1.3562540745    -0.0567255161
   12      C       0.9888540676     1.4147043853    -0.0532045457
   13      F       1.5564839372     2.6407217950    -0.1190811040
   14      H       5.1922718757    -0.3610020647     0.0975399235
   15      H       3.8557594104    -1.6025214969     0.1557751217
   16      H       3.6007485525     1.4426997896    -0.0278661187
   17      H       1.7139109374    -1.8462629998     0.1598099979
   18      H      -1.9118777800    -2.3325457150     0.5551389339
   19      H       0.5900694735    -3.5739608407    -0.6972075785
   20      H      -0.9341255379    -4.4268730340    -0.1596947790
   21      H      -4.4575623383     1.6039568110     0.1046488109
   22      H      -3.0943433398     2.2041020228    -0.8616012038
   23      H      -2.9958640219     2.1839405819     0.9314954851
   24      H      -0.9342410793     2.2834985165    -0.1163028670
 ----------------------------------------------------------------

    9    -923.7771169070      3.34e-06  Convergence criterion met
 Total energy in the final basis set =     -923.7771169070

                    Orbital Energies (a.u.)
 --------------------------------------------------------------

 Alpha MOs
 -- Occupied --
-88.8906 -24.7092 -10.2729 -10.2308 -10.2232 -10.2015 -10.2001 -10.1971
-10.1959 -10.1911 -10.1911 -10.1816 -10.1798  -7.9519  -5.9171  -5.9128
 -5.9071  -1.2198  -0.8839  -0.8236  -0.7993  -0.7801  -0.7337  -0.7300
 -0.6732  -0.6358  -0.6094  -0.5798  -0.5573  -0.5250  -0.5117  -0.4838
 -0.4650  -0.4633  -0.4482  -0.4471  -0.4446  -0.4300  -0.4183  -0.4019
 -0.3937  -0.3799  -0.3711  -0.3522  -0.3509  -0.3254  -0.3159  -0.2938
 -0.2589  -0.2340  -0.2031

          Ground-State Mulliken Net Atomic Charges

     Atom                 Charge (a.u.)
  ----------------------------------------
      1 C                    -0.351405
      2 C                    -0.112105
      3 C                     0.104157
      4 C                    -0.245937
      5 C                     0.155449
      6 C                    -0.143130
      7 C                    -0.346600
      8 C                    -0.133957
      9 S                     0.150567
     10 C                    -0.609287
     11 C                    -0.240443
     12 C                     0.319361
     13 F                    -0.292686
     14 H                     0.146158
     15 H                     0.141152
     16 H                     0.142734
     17 H                     0.137317
     18 H                     0.158530
     19 H                     0.143943
     20 H                     0.146229
     21 H                     0.196850
     22 H                     0.194952
     23 H                     0.194400
     24 H                     0.143750
  ----------------------------------------
  Sum of atomic charges =     0.000000

                    Cartesian Multipole Moments
 -----------------------------------------------------------------
    Charge (ESU x 10^10)
                 0.0000
    Dipole Moment (Debye)
         X      -0.9451      Y       0.3964      Z       0.1325
       Tot       1.0334
    Quadrupole Moments (Debye-Ang)
        XX     -75.0946     XY      -7.8681     YY     -77.4574
        XZ      -0.8780     YZ       0.0712     ZZ     -86.7657

 Total job time:  35.43s(wall), 35.31s(cpu)
        *  Thank you very much for using Q-Chem.  Have a nice day.  *
