 Q-Chem 5.2, Q-Chem, Inc., Pleasanton, CA (2019)
 Q-Chem 5.2.1 for Intel X86 EM64T Linux

User input:
--------------------------------------------------------------
$molecule
0 1
C         3.77754649550000    1.51887308600000    0.27785930750000
C         2.89536092890000    0.73866193540000   -0.33187499600000
C         1.45481054120000    0.76638619900000   -0.08242269730000
C         0.81980482770000    1.96782444360000    0.14437240390000
C        -0.56314327430000    2.03906821480000    0.30063818720000
C        -1.35541681660000    0.91465053340000    0.21917270600000
C        -2.80797958510000    1.09290032720000    0.26514803790000
C        -3.67654567020000    0.52920950420000   -0.56282285170000
C        -0.73160575910000   -0.35692078930000    0.07484865940000
C        -1.46392961100000   -1.56075199470000    0.15159538400000
C        -0.85055869660000   -2.77586957700000    0.02888879370000
C         0.53466166250000   -2.84675220700000   -0.16379420310000
C         1.27988633170000   -1.70178446440000   -0.20423543700000
C         0.68052024990000   -0.42929666390000   -0.08716131320000
H         4.82761550570000    1.47821838780000    0.04323863270000
H         3.48778985380000    2.21389356130000    1.04836701660000
H         3.23667865510000    0.03502477210000   -1.08018959110000
H         1.39787456520000    2.88005432630000    0.15948262760000
H        -1.02749341070000    3.00533568160000    0.44133717340000
H        -3.15832431250000    1.80797839970000    1.00061333650000
H        -3.36572009420000   -0.14071766810000   -1.34729835260000
H        -4.73166356920000    0.73716969590000   -0.50123988140000
H        -2.52531572300000   -1.51183641580000    0.33991253690000
H        -1.42817698110000   -3.68640133120000    0.09516860020000
H         1.01298383890000   -3.81110039800000   -0.25555957550000
H         2.35226440030000   -1.77063196250000   -0.30386437840000
$end

$rem
BASIS = 6-31G*
GUI = 2
METHOD = B3LYP
PRINT_ORBITALS false
MOLDEN_FORMAT false
--------------------------------------------------------------

             Standard Nuclear Orientation (Angstroms)
    I     Atom           X                Y                Z
 ----------------------------------------------------------------
    1      C      -4.0010244433    -0.7710301519     0.1730075108
    2      C      -2.9764133517    -0.1395347175    -0.3838967552
    3      C      -1.5718915625    -0.4593277548    -0.1324380892
    4      C      -1.1828531699    -1.7721288402     0.0202857427
    5      C       0.1581850480    -2.1177587516     0.1758382586
    6      C       1.1527408321    -1.1641137905     0.1675200090
    7      C       2.5431974816    -1.6212107182     0.2064817996
    8      C       3.5161412746    -1.1858156597    -0.5818719920
    9      C       0.7869176330     0.2101801392     0.1015436769
   10      C       1.7355230822     1.2434797298     0.2559376947
   11      C       1.3687812959     2.5591528779     0.2080194901
   12      C       0.0259896977     2.9070914949     0.0160924976
   13      C      -0.9245170213     1.9317078684    -0.0984072440
   14      C      -0.5824488311     0.5628884055    -0.0597564461
   15      H      -5.0201143370    -0.5146727353    -0.0616864502
   16      H      -3.8616845440    -1.5545895425     0.8991711124
   17      H      -3.1650271966     0.6610367391    -1.0875216136
   18      H      -1.9254798430    -2.5551556768    -0.0236562289
   19      H       0.4262065014    -3.1621158796     0.2569108247
   20      H       2.7386651694    -2.4339404648     0.8965905048
   21      H       3.3515181283    -0.4219216691    -1.3236145062
   22      H       4.5106549624    -1.5964296347    -0.5303708008
   23      H       2.7648259098     0.9796813093     0.4439340913
   24      H       2.1094193604     3.3356311634     0.3330822751
   25      H      -0.2568439713     3.9492699500    -0.0163051085
   26      H      -1.9621079309     2.2117256546    -0.1966710197
 ----------------------------------------------------------------

    8    -540.6792004022      5.41e-06  Convergence criterion met
 Total energy in the final basis set =     -540.6792004022

                    Orbital Energies (a.u.)
 --------------------------------------------------------------

 Alpha MOs
 -- Occupied --
-10.1944 -10.1937 -10.1932 -10.1927 -10.1910 -10.1889 -10.1847 -10.1846
-10.1840 -10.1832 -10.1831 -10.1809 -10.1805 -10.1792  -0.8797  -0.8274
 -0.8136  -0.7657  -0.7460  -0.7409  -0.7063  -0.6371  -0.6166  -0.6065
 -0.5764  -0.5489  -0.5076  -0.5058  -0.4924  -0.4705  -0.4482  -0.4430
 -0.4309  -0.4192  -0.4087  -0.4015  -0.3902  -0.3849  -0.3651  -0.3580
 -0.3365  -0.3301  -0.3201  -0.3046  -0.2656  -0.2567  -0.2431  -0.1992

          Ground-State Mulliken Net Atomic Charges

     Atom                 Charge (a.u.)
  ----------------------------------------
      1 C                    -0.337351
      2 C                    -0.131375
      3 C                     0.102903
      4 C                    -0.195581
      5 C                    -0.193394
      6 C                     0.099236
      7 C                    -0.143420
      8 C                    -0.333621
      9 C                     0.078917
     10 C                    -0.200715
     11 C                    -0.134740
     12 C                    -0.129210
     13 C                    -0.197851
     14 C                     0.072914
     15 H                     0.141901
     16 H                     0.144639
     17 H                     0.140003
     18 H                     0.130027
     19 H                     0.126558
     20 H                     0.137874
     21 H                     0.155131
     22 H                     0.143326
     23 H                     0.141330
     24 H                     0.126601
     25 H                     0.126842
     26 H                     0.129056
  ----------------------------------------
  Sum of atomic charges =     0.000000

                    Cartesian Multipole Moments
 -----------------------------------------------------------------
    Charge (ESU x 10^10)
                 0.0000
    Dipole Moment (Debye)
         X       0.1561      Y      -0.0626      Z      -0.0119
       Tot       0.1686
    Quadrupole Moments (Debye-Ang)
        XX     -73.1589     XY      -0.5062     YY     -73.9321
        XZ       0.7641     YZ      -2.4835     ZZ     -84.6383

 Total job time:  41.07s(wall), 40.94s(cpu)
        *  Thank you very much for using Q-Chem.  Have a nice day.  *
