 Q-Chem 5.2, Q-Chem, Inc., Pleasanton, CA (2019)
 Q-Chem 5.2.1 for Intel X86 EM64T Linux

User input:
--------------------------------------------------------------
$molecule
0 1
C         5.89872275020000   -0.64434777390000    0.67221252560000
C         4.79898447700000   -1.38174616590000    0.57229689960000
C         3.44803861040000   -0.90930628580000    0.30011504490000
C         2.40636609590000   -1.83322393870000    0.23908243760000
C         1.10605140300000   -1.43552968820000   -0.00700181440000
C         0.80488876120000   -0.09408987420000   -0.20493404640000
O        -0.44732141620000    0.38099201740000   -0.45482102890000
C        -1.52915034900000   -0.52067512200000   -0.48451250890000
C        -2.79381613550000    0.31191532640000   -0.77096790060000
C        -3.19231564780000    1.17618050750000    0.43214456690000
C        -3.85277083840000    0.34024035000000    1.52668790050000
C        -5.00050933540000   -0.45962565750000    0.91647383120000
C        -4.46811121920000   -1.29105438070000   -0.24894883380000
O        -3.85797161560000   -0.48874624980000   -1.23959021930000
C         1.84200758700000    0.86345647100000   -0.16033265700000
C         1.51362360530000    2.26962508920000   -0.36976125230000
C         2.36955658700000    3.23669086790000   -0.67541627460000
C         3.13538212290000    0.43338794370000    0.09704361750000
H         6.85565072020000   -1.09291082910000    0.87700764790000
H         5.89713182190000    0.42580660320000    0.55722355740000
H         4.87814549000000   -2.45487090860000    0.70124507730000
H         2.61428958510000   -2.88304185690000    0.39006866170000
H         0.33060620300000   -2.18469333250000   -0.04622440540000
H        -1.60895112950000   -1.04956586540000    0.47356634070000
H        -1.40510893890000   -1.25686607590000   -1.29058940380000
H        -2.55095102260000    0.96413733710000   -1.61836134530000
H        -3.89974452160000    1.93438576400000    0.09078045410000
H        -2.30145464830000    1.67926016510000    0.80859540260000
H        -4.22273749860000    0.99409661290000    2.31840738410000
H        -3.12724763640000   -0.34297586640000    1.97388058290000
H        -5.76424625280000    0.22529460360000    0.54348596740000
H        -5.45552897710000   -1.11861830050000    1.65686087800000
H        -5.28149476210000   -1.80467668380000   -0.76665119110000
H        -3.76158096460000   -2.04688067060000    0.12414061760000
H         0.46068033040000    2.49970503920000   -0.28172514810000
H         3.42314156290000    3.06154779120000   -0.81269840070000
H         2.03947520570000    4.25200513080000   -0.81344514170000
H         3.91809113250000    1.17172587940000    0.15383011920000
$end

$rem
BASIS = 6-31G*
GUI = 2
METHOD = B3LYP
PRINT_ORBITALS false
MOLDEN_FORMAT false
--------------------------------------------------------------

             Standard Nuclear Orientation (Angstroms)
    I     Atom           X                Y                Z
 ----------------------------------------------------------------
    1      C       5.9370496992     0.7560907997    -0.4724925746
    2      C       4.8329087258     1.4665399975    -0.2742542367
    3      C       3.4809605537     0.9543951014    -0.0945854238
    4      C       2.4345057622     1.8552725061     0.0945777517
    5      C       1.1331592009     1.4211253044     0.2605591092
    6      C       0.8356864729     0.0644196821     0.2465337605
    7      O      -0.4172576180    -0.4466559132     0.4049934624
    8      C      -1.5033940423     0.4369410259     0.5592762270
    9      C      -2.7676238141    -0.4330505847     0.6988497893
   10      C      -3.1479439715    -1.1034250684    -0.6274949636
   11      C      -3.7991088918    -0.1111005731    -1.5888993828
   12      C      -4.9575800340     0.5826169418    -0.8774563983
   13      C      -4.4427777114     1.2266791988     0.4082705718
   14      O      -3.8408425007     0.2834062143     1.2715486883
   15      C       1.8775437761    -0.8722218850     0.0683886493
   16      C       1.5530056992    -2.2947246869     0.0554513462
   17      C       2.4095792545    -3.2950117438     0.2196768939
   18      C       3.1719395609    -0.4043689463    -0.1038680055
   19      H       6.8943192832     1.2332697010    -0.5941323546
   20      H       5.9388923657    -0.3190318052    -0.5231223459
   21      H       4.9087821899     2.5469429515    -0.2359986968
   22      H       2.6394972752     2.9163638604     0.1090793360
   23      H       0.3539524882     2.1533630783     0.4046583010
   24      H      -1.5741936191     1.1064233364    -0.3072048869
   25      H      -1.3922256463     1.0409906221     1.4702586777
   26      H      -2.5319070333    -1.2069857592     1.4390623327
   27      H      -3.8559665106    -1.9068882601    -0.4153363820
   28      H      -2.2504333623    -1.5404289073    -1.0656045904
   29      H      -4.1567221991    -0.6366371855    -2.4761124770
   30      H      -3.0714018346     0.6345550656    -1.9169080984
   31      H      -5.7226097897    -0.1534314161    -0.6235034944
   32      H      -5.4067340706     1.3462629080    -1.5135323739
   33      H      -5.2645400491     1.6526199951     0.9885269695
   34      H      -3.7352666910     2.0326592881     0.1643886915
   35      H       0.5022229585    -2.5113101266    -0.0799113456
   36      H       3.4606657177    -3.1402697142     0.3952756751
   37      H       2.0824387055    -4.3203382041     0.1961513797
   38      H       3.9585693300    -1.1231942532    -0.2635702039
 ----------------------------------------------------------------

    9    -772.1382797009      2.76e-06  Convergence criterion met
 Total energy in the final basis set =     -772.1382797009

                    Orbital Energies (a.u.)
 --------------------------------------------------------------

 Alpha MOs
 -- Occupied --
-19.1847 -19.1485 -10.2486 -10.2416 -10.2371 -10.2308 -10.1915 -10.1880
-10.1871 -10.1859 -10.1858 -10.1853 -10.1842 -10.1835 -10.1826 -10.1814
-10.1739 -10.1732  -1.0763  -1.0397  -0.8643  -0.8085  -0.8008  -0.7846
 -0.7747  -0.7316  -0.7259  -0.6956  -0.6441  -0.6406  -0.6227  -0.6102
 -0.5693  -0.5538  -0.5455  -0.5385  -0.5077  -0.4939  -0.4794  -0.4759
 -0.4641  -0.4518  -0.4480  -0.4434  -0.4390  -0.4251  -0.4224  -0.4045
 -0.3984  -0.3957  -0.3820  -0.3783  -0.3708  -0.3603  -0.3523  -0.3447
 -0.3400  -0.3353  -0.3265  -0.3203  -0.3005  -0.2916  -0.2741  -0.2524
 -0.2281  -0.2020

          Ground-State Mulliken Net Atomic Charges

     Atom                 Charge (a.u.)
  ----------------------------------------
      1 C                    -0.356618
      2 C                    -0.116774
      3 C                     0.191807
      4 C                    -0.211076
      5 C                    -0.189834
      6 C                     0.322269
      7 O                    -0.524735
      8 C                    -0.059856
      9 C                     0.122204
     10 C                    -0.283841
     11 C                    -0.280179
     12 C                    -0.271353
     13 C                    -0.035054
     14 O                    -0.478535
     15 C                     0.105994
     16 C                    -0.103889
     17 C                    -0.348273
     18 C                    -0.266012
     19 H                     0.140835
     20 H                     0.139962
     21 H                     0.123038
     22 H                     0.128512
     23 H                     0.135153
     24 H                     0.138630
     25 H                     0.152988
     26 H                     0.148699
     27 H                     0.142938
     28 H                     0.155453
     29 H                     0.142289
     30 H                     0.135682
     31 H                     0.144342
     32 H                     0.134928
     33 H                     0.146722
     34 H                     0.117591
     35 H                     0.146588
     36 H                     0.139876
     37 H                     0.141446
     38 H                     0.128085
  ----------------------------------------
  Sum of atomic charges =     0.000000

                    Cartesian Multipole Moments
 -----------------------------------------------------------------
    Charge (ESU x 10^10)
                 0.0000
    Dipole Moment (Debye)
         X      -1.2513      Y       1.0422      Z      -1.2189
       Tot       2.0341
    Quadrupole Moments (Debye-Ang)
        XX    -102.2648     XY      -1.9285     YY    -100.2443
        XZ       4.8120     YZ       0.4024     ZZ    -113.4943

 Total job time:  76.32s(wall), 75.89s(cpu)
        *  Thank you very much for using Q-Chem.  Have a nice day.  *
