 Q-Chem 5.2, Q-Chem, Inc., Pleasanton, CA (2019)
 Q-Chem 5.2.1 for Intel X86 EM64T Linux

User input:
--------------------------------------------------------------
$molecule
0 1
C        -3.13185096250000   -2.73758211770000    0.15816875340000
C        -3.09697297110000   -1.40766331260000    0.11051290140000
C        -1.90376921740000   -0.60632025360000    0.07567720310000
C        -0.58505780870000   -0.98788997340000    0.07736189440000
C         0.32372076060000    0.08352548350000    0.03934027390000
C         1.81961228420000   -0.05315703700000    0.02753521260000
C         2.31638070060000   -1.47951040460000    0.25218127320000
C         3.83940046750000   -1.55952227550000    0.36750644630000
C         4.56081337470000   -1.23315029120000   -0.93516261190000
C        -0.31280271170000    1.31012536300000    0.00295576100000
C         0.29236608290000    2.61155653400000   -0.05017290700000
C        -0.37478654130000    3.76273600830000   -0.08676426970000
S        -2.04089979230000    1.12300267340000    0.02283385990000
H        -4.06536293420000   -3.27125213680000    0.18213644550000
H        -2.23701618690000   -3.33509864530000    0.17484466940000
H        -4.02259509530000   -0.84663525460000    0.09598744340000
H        -0.28825612150000   -2.01947974770000    0.10476014670000
H         2.23823593080000    0.59017643220000    0.80766342990000
H         2.19119070580000    0.31427054120000   -0.93338825960000
H         1.98940072750000   -2.11655098530000   -0.57242231410000
H         1.87812426160000   -1.86512480190000    1.17581034860000
H         4.10912207330000   -2.57332090790000    0.67320808080000
H         4.17912746480000   -0.87886214300000    1.15187608630000
H         4.20270303900000   -1.87297153650000   -1.73900807600000
H         5.63092479580000   -1.39216855460000   -0.82272761250000
H         4.40375034990000   -0.19702020680000   -1.22369759110000
H         1.37433940610000    2.61555646340000   -0.06258712340000
H        -1.45195326130000    3.78881031950000   -0.07851025920000
H         0.13355729410000    4.70966321550000   -0.12668602040000
$end

$rem
BASIS = 6-31G*
GUI = 2
METHOD = B3LYP
PRINT_ORBITALS false
MOLDEN_FORMAT false
--------------------------------------------------------------

             Standard Nuclear Orientation (Angstroms)
    I     Atom           X                Y                Z
 ----------------------------------------------------------------
    1      C      -2.6614725337    -3.2617801862    -0.0824511572
    2      C      -2.8778440029    -1.9482701672    -0.0892629034
    3      C      -1.8583371121    -0.9357666585    -0.0388469702
    4      C      -0.4925958618    -1.0618682028     0.0198667958
    5      C       0.1967860086     0.1622122121     0.0603017762
    6      C       1.6903665431     0.3103247764     0.1218873003
    7      C       2.4384606681    -1.0044953445     0.3300503879
    8      C       3.9421258014    -0.8005610711     0.5216045169
    9      C       4.6465512296    -0.2941556632    -0.7318867312
   10      C      -0.6589272677     1.2474210289     0.0269875071
   11      C      -0.3103338329     2.6406148624     0.0433758512
   12      C      -1.1817441519     3.6460488179     0.0060616330
   13      S      -2.3190700288     0.7374923664    -0.0480347007
   14      H      -3.4766668969    -3.9622668366    -0.1224429536
   15      H      -1.6710819104    -3.6802249660    -0.0370227289
   16      H      -3.8915919645    -1.5715154780    -0.1352059347
   17      H      -0.0067118558    -2.0193546213     0.0323511572
   18      H       1.9433742884     0.9904326527     0.9411333579
   19      H       2.0284344310     0.7779427285    -0.8073548759
   20      H       2.2761472190    -1.6594494934    -0.5286678940
   21      H       2.0401427743    -1.5010832975     1.2180825377
   22      H       4.3854797853    -1.7564200975     0.8110205972
   23      H       4.1104715913    -0.0988487878     1.3420970198
   24      H       4.4532964865    -0.9585031595    -1.5715752312
   25      H       5.7211786006    -0.2529589436    -0.5689581128
   26      H       4.3086649203     0.7041783373    -0.9976852358
   27      H       0.7505957455     2.8488361416     0.0870646711
   28      H      -2.2434867315     3.4684064426    -0.0406504892
   29      H      -0.8613389503     4.6726050906     0.0202412886
 ----------------------------------------------------------------

    9    -865.0577722718      2.97e-06  Convergence criterion met
 Total energy in the final basis set =     -865.0577722718

                    Orbital Energies (a.u.)
 --------------------------------------------------------------

 Alpha MOs
 -- Occupied --
-88.8983 -10.2144 -10.2090 -10.1964 -10.1939 -10.1933 -10.1887 -10.1825
-10.1820 -10.1805 -10.1804 -10.1777 -10.1721  -7.9603  -5.9242  -5.9206
 -5.9173  -0.8876  -0.8130  -0.8010  -0.7714  -0.7539  -0.7081  -0.6968
 -0.6470  -0.6207  -0.5855  -0.5688  -0.5291  -0.5247  -0.4891  -0.4715
 -0.4579  -0.4502  -0.4459  -0.4235  -0.4133  -0.3999  -0.3933  -0.3851
 -0.3751  -0.3612  -0.3606  -0.3529  -0.3427  -0.3345  -0.3245  -0.3171
 -0.3157  -0.2674  -0.2441  -0.1923

          Ground-State Mulliken Net Atomic Charges

     Atom                 Charge (a.u.)
  ----------------------------------------
      1 C                    -0.343872
      2 C                    -0.087018
      3 C                    -0.132808
      4 C                    -0.166608
      5 C                     0.150374
      6 C                    -0.338419
      7 C                    -0.264209
      8 C                    -0.250719
      9 C                    -0.447097
     10 C                    -0.205091
     11 C                    -0.056890
     12 C                    -0.376171
     13 S                     0.233079
     14 H                     0.145891
     15 H                     0.141586
     16 H                     0.136345
     17 H                     0.136663
     18 H                     0.150742
     19 H                     0.159338
     20 H                     0.137135
     21 H                     0.139885
     22 H                     0.133168
     23 H                     0.132252
     24 H                     0.144014
     25 H                     0.145547
     26 H                     0.147829
     27 H                     0.136365
     28 H                     0.155069
     29 H                     0.143618
  ----------------------------------------
  Sum of atomic charges =     0.000000

                    Cartesian Multipole Moments
 -----------------------------------------------------------------
    Charge (ESU x 10^10)
                -0.0000
    Dipole Moment (Debye)
         X       1.2782      Y      -0.4628      Z       0.0624
       Tot       1.3608
    Quadrupole Moments (Debye-Ang)
        XX     -82.0980     XY       1.4848     YY     -80.9941
        XZ       0.6559     YZ       0.2418     ZZ     -90.7100

 Total job time:  39.67s(wall), 39.54s(cpu)
        *  Thank you very much for using Q-Chem.  Have a nice day.  *
