 Q-Chem 5.2, Q-Chem, Inc., Pleasanton, CA (2019)
 Q-Chem 5.2.1 for Intel X86 EM64T Linux

User input:
--------------------------------------------------------------
$molecule
0 1
C         0.67018887090000   -4.62236580050000   -0.17452595200000
C        -0.29497309930000   -3.71745368160000   -0.28108015510000
C        -0.14359653080000   -2.26958604330000   -0.18246401430000
C         1.09577332510000   -1.63832897270000   -0.12479214580000
C         1.21490723660000   -0.25266933900000   -0.02696735980000
C         2.55382111660000    0.31415137200000    0.02832652570000
C         2.90378352460000    1.58704980700000    0.14858645800000
F         2.11400945620000    2.64434905240000    0.24755658160000
F         4.17016150260000    1.98588614110000    0.18948874760000
C         0.05575207800000    0.52318929980000    0.01102973950000
C        -1.18113411090000   -0.10041881590000   -0.05433217980000
C        -2.41513040370000    0.75644785660000    0.00947509080000
F        -2.32026638810000    1.85214958170000   -0.76067012080000
F        -3.52524834720000    0.11332313380000   -0.37977866540000
F        -2.65560657210000    1.19795806110000    1.25969427730000
C        -1.29258497140000   -1.47734969850000   -0.14857727020000
H         0.45790249560000   -5.67402649120000   -0.25744372450000
H         1.69968577520000   -4.36436087190000    0.00508625700000
H        -1.31177816260000   -4.05004171770000   -0.44557396780000
H         1.99504904130000   -2.23292783650000   -0.16271934900000
H         3.37617218410000   -0.38365569900000   -0.03311183240000
H         0.10124153630000    1.59709488210000    0.08208336920000
H        -2.26827763270000   -1.93673421500000   -0.19638884610000
$end

$rem
BASIS = 6-31G*
GUI = 2
METHOD = B3LYP
PRINT_ORBITALS false
MOLDEN_FORMAT false
--------------------------------------------------------------

             Standard Nuclear Orientation (Angstroms)
    I     Atom           X                Y                Z
 ----------------------------------------------------------------
    1      C      -1.4046749064    -4.3444048298     0.1023795735
    2      C      -1.8804265024    -3.1139712363    -0.0440818919
    3      C      -1.1070639115    -1.8767016888    -0.0381593276
    4      C       0.2847766972    -1.8517337723    -0.0405037604
    5      C       1.0019359869    -0.6561557465    -0.0309677529
    6      C       2.4549159500    -0.7328179949    -0.0333418829
    7      C       3.3310614362     0.2613374182     0.0017389661
    8      F       3.0881891839     1.5614506926     0.0479818200
    9      F       4.6448074969     0.0651181522    -0.0033491899
   10      C       0.3015860459     0.5506869256    -0.0219226629
   11      C      -1.0850031394     0.5311176196    -0.0277690513
   12      C      -1.8160643555     1.8447485329     0.0032476327
   13      F      -1.2841862054     2.7487328148    -0.8349666302
   14      F      -3.1109960165     1.7362951612    -0.3267214625
   15      F      -1.7861762511     2.4070939711     1.2274544665
   16      C      -1.7912920436    -0.6598290868    -0.0344033028
   17      H      -2.0588114268    -5.1987141431     0.0885202676
   18      H      -0.3594512316    -4.5562345326     0.2484159094
   19      H      -2.9462287651    -2.9738923817    -0.1706085852
   20      H       0.8309520337    -2.7818534890    -0.0564068962
   21      H       2.8858590922    -1.7228966318    -0.0650114163
   22      H       0.8151159909     1.4976116373    -0.0185028769
   23      H      -2.8706871074    -0.6458944318    -0.0372966750
 ----------------------------------------------------------------

    9    -922.5527022602      3.76e-06  Convergence criterion met
 Total energy in the final basis set =     -922.5527022602

                    Orbital Energies (a.u.)
 --------------------------------------------------------------

 Alpha MOs
 -- Occupied --
-24.7553 -24.7443 -24.7236 -24.7201 -24.7149 -10.4284 -10.3685 -10.2233
-10.2174 -10.2134 -10.2133 -10.2071 -10.2067 -10.2060 -10.2026 -10.1928
 -1.3043  -1.2977  -1.2360  -1.2148  -1.2087  -0.8915  -0.8288  -0.8130
 -0.7674  -0.7446  -0.6994  -0.6598  -0.6455  -0.6246  -0.5991  -0.5837
 -0.5785  -0.5779  -0.5402  -0.5303  -0.5238  -0.5129  -0.4958  -0.4632
 -0.4560  -0.4544  -0.4512  -0.4506  -0.4426  -0.4283  -0.4208  -0.4184
 -0.4080  -0.4037  -0.3960  -0.3933  -0.3870  -0.3608  -0.3564  -0.3312
 -0.3017  -0.2468  -0.2335

          Ground-State Mulliken Net Atomic Charges

     Atom                 Charge (a.u.)
  ----------------------------------------
      1 C                    -0.349563
      2 C                    -0.111105
      3 C                     0.175116
      4 C                    -0.246451
      5 C                     0.194715
      6 C                    -0.299141
      7 C                     0.552406
      8 F                    -0.227661
      9 F                    -0.242673
     10 C                    -0.228524
     11 C                    -0.006739
     12 C                     0.779584
     13 F                    -0.266063
     14 F                    -0.267118
     15 F                    -0.262409
     16 C                    -0.237608
     17 H                     0.151530
     18 H                     0.146045
     19 H                     0.135167
     20 H                     0.132896
     21 H                     0.162838
     22 H                     0.162122
     23 H                     0.152632
  ----------------------------------------
  Sum of atomic charges =     0.000000

                    Cartesian Multipole Moments
 -----------------------------------------------------------------
    Charge (ESU x 10^10)
                -0.0000
    Dipole Moment (Debye)
         X       0.6374      Y      -2.9723      Z      -0.1031
       Tot       3.0416
    Quadrupole Moments (Debye-Ang)
        XX     -86.7658     XY       2.7551     YY     -83.7537
        XZ       0.3735     YZ      -0.3062     ZZ     -90.0779

 Total job time:  38.19s(wall), 38.07s(cpu)
        *  Thank you very much for using Q-Chem.  Have a nice day.  *
