 Q-Chem 5.2, Q-Chem, Inc., Pleasanton, CA (2019)
 Q-Chem 5.2.1 for Intel X86 EM64T Linux

User input:
--------------------------------------------------------------
$molecule
0 1
C        -3.64364976190000   -0.38442149560000    0.19690959460000
C        -2.46581354900000   -0.77176434350000   -0.27404479000000
C        -1.21867162940000   -0.01811665640000   -0.17535184670000
C        -1.19837558700000    1.36550097360000   -0.01838919470000
C        -0.00707187050000    2.06926090320000    0.06292776670000
C        -0.01126026620000    3.56269557560000    0.19896193670000
C         1.18864503400000    1.37277436680000   -0.01793555820000
C         1.21747397440000   -0.01052167820000   -0.17557422830000
C         2.46927390320000   -0.75624160470000   -0.27583781700000
C         3.64449086320000   -0.36276835440000    0.19633773320000
C         0.00153082900000   -0.70047958330000   -0.26291734950000
O         0.00576792030000   -2.07751112540000   -0.43253751570000
C         0.01481801130000   -2.79654607170000    0.78051413990000
H        -4.52169371180000   -0.99771529480000    0.08681416680000
H        -3.78039521380000    0.54862461160000    0.71758948710000
H        -2.37086850680000   -1.73333703240000   -0.76204111480000
H        -2.13408372980000    1.90286036920000    0.02051765710000
H        -0.90176074450000    3.90239067340000    0.72251648250000
H        -0.00318234250000    4.02558772540000   -0.78831701690000
H         0.86855532250000    3.90577083010000    0.73824242500000
H         2.12095841990000    1.91605352480000    0.02000208370000
H         2.38043895280000   -1.71732525080000   -0.76598495760000
H         3.77516148570000    0.56979592140000    0.71943717990000
H         4.52635351270000   -0.97031998820000    0.08513684640000
H        -0.87644060380000   -2.57633517490000    1.37982801880000
H         0.90730620140000   -2.56489726410000    1.37358179970000
H         0.02069573810000   -3.85159017220000    0.51115941560000
$end

$rem
BASIS = 6-31G*
GUI = 2
METHOD = B3LYP
PRINT_ORBITALS false
MOLDEN_FORMAT false
--------------------------------------------------------------

             Standard Nuclear Orientation (Angstroms)
    I     Atom           X                Y                Z
 ----------------------------------------------------------------
    1      C       3.6434477943     0.4000088018     0.1734357872
    2      C       2.4653759382     0.7840258062    -0.2996480330
    3      C       1.2187161385     0.0301242794    -0.1968865001
    4      C       1.1993054257    -1.3526316028    -0.0323983733
    5      C       0.0084522243    -2.0567047495     0.0527173629
    6      C       0.0135971475    -3.5493741499     0.1968754347
    7      C      -1.1877100364    -1.3614377093    -0.0319636682
    8      C      -1.2174240706     0.0209613182    -0.1971272573
    9      C      -2.4697004597     0.7653193810    -0.3014775196
   10      C      -3.6446773813     0.3736652673     0.1728031368
   11      C      -0.0019224014     0.7112157069    -0.2881933632
   12      O      -0.0070402276     2.0873009512    -0.4653035830
   13      C      -0.0165866583     2.8129195062     0.7438176084
   14      H       4.5211002733     1.0132591088     0.0600265618
   15      H       3.7807786214    -0.5301023261     0.6991880490
   16      H       2.3698262531     1.7428678045    -0.7928714003
   17      H       2.1353578286    -1.8891694092     0.0094546192
   18      H       0.9043012159    -3.8856427309     0.7222923431
   19      H       0.0058445339    -4.0176363387    -0.7878704955
   20      H      -0.8660127512    -3.8900759088     0.7379930587
   21      H      -2.1196749415    -1.9051019421     0.0089065581
   22      H      -2.3814698156     1.7237788454    -0.7968445060
   23      H      -3.7747629508    -0.5561228691     0.7009657417
   24      H      -4.5269274137     0.9800355386     0.0582765814
   25      H       0.8747965919     2.5965460275     1.3443426307
   26      H      -0.9089423138     2.5839270274     1.3381150232
   27      H      -0.0231352757     3.8664784301     0.4687262077
 ----------------------------------------------------------------

    8    -540.8803270405      8.09e-06  Convergence criterion met
 Total energy in the final basis set =     -540.8803270405

                    Orbital Energies (a.u.)
 --------------------------------------------------------------

 Alpha MOs
 -- Occupied --
-19.1624 -10.2349 -10.2299 -10.1912 -10.1912 -10.1908 -10.1851 -10.1850
-10.1818 -10.1818 -10.1797 -10.1769 -10.1768  -1.0521  -0.8635  -0.8032
 -0.7882  -0.7486  -0.7160  -0.7072  -0.6625  -0.6391  -0.5940  -0.5638
 -0.5350  -0.5189  -0.5000  -0.4642  -0.4591  -0.4526  -0.4439  -0.4365
 -0.4237  -0.4194  -0.4118  -0.3844  -0.3835  -0.3690  -0.3624  -0.3465
 -0.3417  -0.3271  -0.3075  -0.2729  -0.2697  -0.2209  -0.2181

          Ground-State Mulliken Net Atomic Charges

     Atom                 Charge (a.u.)
  ----------------------------------------
      1 C                    -0.348239
      2 C                    -0.119560
      3 C                     0.159001
      4 C                    -0.269174
      5 C                     0.199850
      6 C                    -0.529518
      7 C                    -0.268941
      8 C                     0.159220
      9 C                    -0.119834
     10 C                    -0.348197
     11 C                     0.171769
     12 O                    -0.519688
     13 C                    -0.211643
     14 H                     0.142686
     15 H                     0.140040
     16 H                     0.148829
     17 H                     0.122021
     18 H                     0.156501
     19 H                     0.168087
     20 H                     0.156627
     21 H                     0.122043
     22 H                     0.148876
     23 H                     0.140085
     24 H                     0.142712
     25 H                     0.148738
     26 H                     0.148872
     27 H                     0.158839
  ----------------------------------------
  Sum of atomic charges =     0.000000

                    Cartesian Multipole Moments
 -----------------------------------------------------------------
    Charge (ESU x 10^10)
                 0.0000
    Dipole Moment (Debye)
         X      -0.0087      Y      -0.3506      Z       1.1808
       Tot       1.2317
    Quadrupole Moments (Debye-Ang)
        XX     -72.6756     XY      -0.0303     YY     -69.6712
        XZ      -0.0053     YZ       1.2025     ZZ     -80.2620

 Total job time:  34.66s(wall), 34.55s(cpu)
        *  Thank you very much for using Q-Chem.  Have a nice day.  *
