 Q-Chem 5.2, Q-Chem, Inc., Pleasanton, CA (2019)
 Q-Chem 5.2.1 for Intel X86 EM64T Linux

User input:
--------------------------------------------------------------
$molecule
0 1
C        -3.22096617320000   -2.40561067390000   -0.06683837460000
C        -3.29082002220000   -1.08370840930000    0.03955779690000
C        -2.17096443410000   -0.15056395250000    0.02609770140000
C        -2.43770072310000    1.22240124320000    0.00659749660000
C        -1.41051375040000    2.14010403920000   -0.00975784530000
C        -0.08496866230000    1.70731751200000   -0.00359104520000
C         0.94078375870000    2.67740770850000   -0.01987835490000
N         1.75817316380000    3.48230223850000   -0.03329889860000
C         0.21395233020000    0.32927277200000    0.01961021410000
C         1.61220960420000   -0.07140063280000    0.02877528480000
C         2.11372844840000   -1.29824488240000    0.00615997510000
F         1.45458415820000   -2.44989831620000   -0.03060644970000
F         3.41685326220000   -1.55020619160000    0.01568378020000
C        -0.84260790450000   -0.57392395410000    0.03579251190000
H        -4.10993245850000   -3.01210807140000   -0.05003633020000
H        -2.29199603100000   -2.93762757220000   -0.17952062810000
H        -4.26238529530000   -0.61498952990000    0.13644102940000
H        -3.46158116450000    1.56619418170000    0.00178077120000
H        -1.61876075830000    3.19983516250000   -0.02610694660000
H         2.34312264140000    0.72522173980000    0.05174335330000
H        -0.63453584940000   -1.62918498170000    0.06462961500000
$end

$rem
BASIS = 6-31G*
GUI = 2
METHOD = B3LYP
PRINT_ORBITALS false
MOLDEN_FORMAT false
--------------------------------------------------------------

             Standard Nuclear Orientation (Angstroms)
    I     Atom           X                Y                Z
 ----------------------------------------------------------------
    1      C       3.3447445151    -2.0975720659     0.0651099018
    2      C       3.2860390903    -0.7750690308    -0.0405532322
    3      C       2.0809614967     0.0450555151    -0.0264106619
    4      C       2.2132823443     1.4374073772    -0.0061765349
    5      C       1.1019347059     2.2511492750     0.0108395229
    6      C      -0.1753870136     1.6918439126     0.0046166116
    7      C      -1.2903878475     2.5578653949     0.0215938753
    8      N      -2.1819864885     3.2796804316     0.0355821263
    9      C      -0.3392488944     0.2913169276    -0.0193168809
   10      C      -1.6920551829    -0.2430773246    -0.0285097520
   11      C      -2.0722155277    -1.5127913382    -0.0065131147
   12      F      -1.3044745724    -2.5951057737     0.0295130603
   13      F      -3.3447612787    -1.8899476693    -0.0159945754
   14      C       0.7999266386    -0.5051385169    -0.0361558888
   15      H       4.2883397043    -2.6149813631     0.0478415422
   16      H       2.4717754564    -2.7172416007     0.1776242812
   17      H       4.2075447198    -0.2142764695    -0.1373101777
   18      H       3.1989927012     1.8788814580    -0.0013111297
   19      H       1.2064214813     3.3260727845     0.0277547723
   20      H      -2.4967899416     0.4789116237    -0.0509269623
   21      H       0.6951780087    -1.5755892233    -0.0655566504
 ----------------------------------------------------------------

    9    -677.7583472173      6.72e-06  Convergence criterion met
 Total energy in the final basis set =     -677.7583472173

                    Orbital Energies (a.u.)
 --------------------------------------------------------------

 Alpha MOs
 -- Occupied --
-24.7595 -24.7481 -14.3342 -10.3740 -10.2371 -10.2358 -10.2261 -10.2214
-10.2184 -10.2160 -10.2095 -10.2085 -10.2080 -10.1994  -1.3009  -1.2393
 -0.9189  -0.8924  -0.8346  -0.8128  -0.7621  -0.7604  -0.6700  -0.6669
 -0.6308  -0.5947  -0.5814  -0.5649  -0.5420  -0.5337  -0.4962  -0.4908
 -0.4587  -0.4566  -0.4546  -0.4535  -0.4342  -0.4214  -0.4194  -0.4085
 -0.3738  -0.3695  -0.3646  -0.3589  -0.3354  -0.3293  -0.3022  -0.2504
 -0.2384

          Ground-State Mulliken Net Atomic Charges

     Atom                 Charge (a.u.)
  ----------------------------------------
      1 C                    -0.342498
      2 C                    -0.122357
      3 C                     0.204279
      4 C                    -0.205514
      5 C                    -0.140613
      6 C                     0.094689
      7 C                     0.209482
      8 N                    -0.484304
      9 C                     0.216163
     10 C                    -0.315804
     11 C                     0.558608
     12 F                    -0.230322
     13 F                    -0.236832
     14 C                    -0.292843
     15 H                     0.154791
     16 H                     0.154197
     17 H                     0.136103
     18 H                     0.142100
     19 H                     0.161288
     20 H                     0.192002
     21 H                     0.147384
  ----------------------------------------
  Sum of atomic charges =     0.000000

                    Cartesian Multipole Moments
 -----------------------------------------------------------------
    Charge (ESU x 10^10)
                 0.0000
    Dipole Moment (Debye)
         X       3.7925      Y      -2.2649      Z      -0.0565
       Tot       4.4177
    Quadrupole Moments (Debye-Ang)
        XX     -76.5250     XY       9.0916     YY     -83.8139
        XZ       0.0198     YZ      -0.2838     ZZ     -79.9318

 Total job time:  30.96s(wall), 30.85s(cpu)
        *  Thank you very much for using Q-Chem.  Have a nice day.  *
