 Q-Chem 5.2, Q-Chem, Inc., Pleasanton, CA (2019)
 Q-Chem 5.2.1 for Intel X86 EM64T Linux

User input:
--------------------------------------------------------------
$molecule
0 1
C         1.28219517030000    3.53182301130000   -0.29075685020000
C         1.61197532710000    2.38714361260000    0.29147622150000
C         0.81488269290000    1.16578547340000    0.20907780800000
C        -0.57414856530000    1.24402057710000    0.20647944090000
C        -1.38659788310000    0.11727514500000    0.18572868320000
C        -2.84850270530000    0.37908199690000    0.11776537210000
O        -3.36828544130000    1.39344504190000    0.51423733370000
O        -3.53312977850000   -0.60707247020000   -0.47704478830000
C        -4.93060269070000   -0.39800115000000   -0.61227020470000
C        -0.81491464190000   -1.16571649420000    0.21011978050000
C        -1.61186262830000   -2.38708354620000    0.29359446170000
C        -1.28149950290000   -3.53257039460000   -0.28674634750000
C         0.57414536620000   -1.24393685740000    0.20799593760000
C         1.38655812920000   -0.11721808870000    0.18621639780000
C         2.84853682150000   -0.37874834890000    0.11875805410000
O         3.36879860190000   -1.39188595620000    0.51769147240000
O         3.53250073510000    0.60617322590000   -0.47885754580000
C         4.93001606640000    0.39749029380000   -0.61415802980000
H         1.89359685910000    4.41173416590000   -0.18957233950000
H         0.40432225390000    3.62841771880000   -0.90734283110000
H         2.52267479080000    2.32106647350000    0.86971330670000
H        -1.05542119390000    2.21018152240000    0.23798962920000
H        -5.32064196770000   -1.27690267070000   -1.11886984310000
H        -5.12442509860000    0.50225344020000   -1.19911713370000
H        -5.39459512920000   -0.28057835440000    0.36946690270000
H        -2.52304669990000   -2.32036623030000    0.87097764580000
H        -0.40323133090000   -3.63002700270000   -0.90263746420000
H        -1.89291045150000   -4.41237651520000   -0.18470162250000
H         1.05540296690000   -2.21006077180000    0.24072913340000
H         5.31859123170000    1.27299420530000   -1.12770740090000
H         5.12407483730000   -0.50694281570000   -1.19445234460000
H         5.39529202780000    0.28793531240000    0.36787605540000
$end

$rem
BASIS = 6-31G*
GUI = 2
METHOD = B3LYP
PRINT_ORBITALS false
MOLDEN_FORMAT false
--------------------------------------------------------------

             Standard Nuclear Orientation (Angstroms)
    I     Atom           X                Y                Z
 ----------------------------------------------------------------
    1      C      -1.8265398389    -3.2837214371    -0.2738048907
    2      C      -1.9703941213    -2.1008584386     0.3077295449
    3      C      -0.9895627641    -1.0215455068     0.2245711768
    4      C       0.3694433910    -1.3192550882     0.2220031268
    5      C       1.3504267906    -0.3357556717     0.2005502908
    6      C       2.7522393827    -0.8263158494     0.1327290766
    7      O       3.1044790227    -1.9100800590     0.5298170642
    8      O       3.5846433109     0.0383157043    -0.4626951135
    9      C       4.9312034270    -0.3899915437    -0.5978099736
   10      C       0.9896271034     1.0217237274     0.2241610304
   11      C       1.9703353119     2.1011686221     0.3068757221
   12      C       1.8259056905     3.2842190454    -0.2741639923
   13      C      -0.3694102963     1.3194204655     0.2220068808
   14      C      -1.3503580521     0.3359158798     0.2009294104
   15      C      -2.7523023784     0.8261328874     0.1333291662
   16      O      -3.1051219718     1.9092437352     0.5316471669
   17      O      -3.5839870725    -0.0381070088    -0.4636729446
   18      C      -4.9306804800     0.3896600809    -0.5990836949
   19      H      -2.5698381565    -4.0553768555    -0.1720724150
   20      H      -0.9751940989    -3.5187986368    -0.8903426493
   21      H      -2.8589982104    -1.8907249523     0.8859375688
   22      H       0.6912714765    -2.3495364388     0.2541003091
   23      H       5.4557404870     0.4155563847    -1.1049540579
   24      H       4.9796175384    -1.3099519373    -1.1841065871
   25      H       5.3707851387    -0.5789768602     0.3839931191
   26      H       2.8594434103     1.8910242743     0.8842881365
   27      H       0.9741708960     3.5194654082    -0.8901036229
   28      H       2.5692188409     4.0558920634    -0.1726672062
   29      H      -0.6912223532     2.3497016792     0.2541530930
   30      H      -5.4533449712    -0.4133819660    -1.1120905323
   31      H      -4.9787931707     1.3130784646    -1.1799306674
   32      H      -5.3725621378     0.5722673611     0.3828888813
 ----------------------------------------------------------------

    9    -842.7876108289      3.83e-06  Convergence criterion met
 Total energy in the final basis set =     -842.7876108289

                    Orbital Energies (a.u.)
 --------------------------------------------------------------

 Alpha MOs
 -- Occupied --
-19.1979 -19.1979 -19.1366 -19.1365 -10.3176 -10.3176 -10.2430 -10.2430
-10.2119 -10.2118 -10.2113 -10.2112 -10.1991 -10.1991 -10.1937 -10.1937
-10.1830 -10.1830  -1.1146  -1.1145  -1.0211  -1.0211  -0.8851  -0.8222
 -0.7893  -0.7753  -0.7469  -0.7313  -0.7174  -0.6531  -0.6421  -0.5947
 -0.5798  -0.5728  -0.5639  -0.5232  -0.5172  -0.5061  -0.4904  -0.4860
 -0.4749  -0.4712  -0.4513  -0.4510  -0.4469  -0.4408  -0.4229  -0.4199
 -0.4105  -0.4052  -0.3999  -0.3768  -0.3742  -0.3666  -0.3607  -0.3515
 -0.3450  -0.3118  -0.3057  -0.3032  -0.2824  -0.2803  -0.2691  -0.2605
 -0.2265

          Ground-State Mulliken Net Atomic Charges

     Atom                 Charge (a.u.)
  ----------------------------------------
      1 C                    -0.340899
      2 C                    -0.094762
      3 C                     0.120297
      4 C                    -0.245172
      5 C                     0.043974
      6 C                     0.549345
      7 O                    -0.480758
      8 O                    -0.443637
      9 C                    -0.220324
     10 C                     0.120253
     11 C                    -0.094751
     12 C                    -0.340915
     13 C                    -0.245167
     14 C                     0.044135
     15 C                     0.549109
     16 O                    -0.480722
     17 O                    -0.443532
     18 C                    -0.220331
     19 H                     0.145215
     20 H                     0.148305
     21 H                     0.142144
     22 H                     0.166650
     23 H                     0.167632
     24 H                     0.171966
     25 H                     0.170024
     26 H                     0.142174
     27 H                     0.148298
     28 H                     0.145218
     29 H                     0.166610
     30 H                     0.167657
     31 H                     0.172055
     32 H                     0.169909
  ----------------------------------------
  Sum of atomic charges =     0.000000

                    Cartesian Multipole Moments
 -----------------------------------------------------------------
    Charge (ESU x 10^10)
                 0.0000
    Dipole Moment (Debye)
         X       0.0005      Y       0.0007      Z      -1.5761
       Tot       1.5761
    Quadrupole Moments (Debye-Ang)
        XX     -81.4921     XY      11.4891     YY    -106.3078
        XZ       0.0122     YZ      -0.0065     ZZ    -104.3544

 Total job time:  63.49s(wall), 63.31s(cpu)
        *  Thank you very much for using Q-Chem.  Have a nice day.  *
