 Q-Chem 5.2, Q-Chem, Inc., Pleasanton, CA (2019)
 Q-Chem 5.2.1 for Intel X86 EM64T Linux

User input:
--------------------------------------------------------------
$molecule
0 1
C        -3.94387186570000   -0.23960994970000   -0.00078300070000
C        -2.86151406500000   -1.00707197990000    0.00114803910000
C        -1.49698854030000   -0.49090710480000    0.00086978620000
C        -0.40438582370000   -1.39272112770000    0.00221462170000
C         0.89354156550000   -0.92847088170000    0.00184483960000
C         2.09409913740000   -1.74796117760000    0.00294178950000
C         2.12966430770000   -3.07548578380000   -0.00403233920000
C         1.04819115430000    0.47598986440000    0.00060983390000
N         2.12955339630000    1.23362448660000    0.00031106670000
C         1.68473215360000    2.50312254940000   -0.00129298280000
C         0.30882070560000    2.55422699430000   -0.00183957500000
N        -0.10127435170000    1.26468336830000   -0.00066502000000
N        -1.34018068310000    0.81428165340000   -0.00061497050000
H        -4.93578694640000   -0.65704130240000   -0.00061512060000
H        -3.85549533830000    0.83275031430000   -0.00268193280000
H        -2.94507427090000   -2.08564917110000    0.00303690330000
H        -0.60989542490000   -2.45091546880000    0.00387072790000
H         3.00803817640000   -1.17062795490000    0.00903683040000
H         1.24011980170000   -3.68305578080000   -0.01147638920000
H         3.06466681960000   -3.60808698290000   -0.00296352240000
H         2.37626374220000    3.32271125620000   -0.00179851500000
H        -0.37828377540000    3.37336828220000   -0.00297631370000
$end

$rem
BASIS = 6-31G*
GUI = 2
METHOD = B3LYP
PRINT_ORBITALS false
MOLDEN_FORMAT false
--------------------------------------------------------------

             Standard Nuclear Orientation (Angstroms)
    I     Atom           X                Y                Z
 ----------------------------------------------------------------
    1      C       3.9312850959     0.0995176197    -0.0009701892
    2      C       2.8701038299     0.8960042200     0.0009064502
    3      C       1.4921029904     0.4169741263     0.0007684052
    4      C       0.4243182160     1.3480407697     0.0020404413
    5      C      -0.8857032806     0.9191030633     0.0018002635
    6      C      -2.0636323231     1.7707990881     0.0028413447
    7      C      -2.0632410834     3.0987989725    -0.0043178353
    8      C      -1.0783230858    -0.4806556867     0.0007705553
    9      N      -2.1798024341    -1.2087338656     0.0006319538
   10      C      -1.7695169860    -2.4898105996    -0.0008154764
   11      C      -0.3954936917    -2.5781502480    -0.0014230128
   12      N       0.0493664593    -1.3001828781    -0.0004502336
   13      N       1.3000135596    -0.8834906294    -0.0005249169
   14      H       4.9341388053     0.4899390890    -0.0009101711
   15      H       3.8139058941    -0.9700568915    -0.0027138396
   16      H       2.9828368034     1.9719237833     0.0026393964
   17      H       0.6584039825     2.4002830495     0.0035374588
   18      H      -2.9928677096     1.2184239842     0.0090628879
   19      H      -1.1575726747     3.6820600781    -0.0118914345
   20      H      -2.9834801660     3.6565209694    -0.0032776657
   21      H      -2.4829860647    -3.2903751435    -0.0011714292
   22      H       0.2691799482    -3.4155952599    -0.0024785055
 ----------------------------------------------------------------

    9    -550.6658860027      6.24e-06  Convergence criterion met
 Total energy in the final basis set =     -550.6658860027

                    Orbital Energies (a.u.)
 --------------------------------------------------------------

 Alpha MOs
 -- Occupied --
-14.4409 -14.3700 -14.3133 -10.2476 -10.2406 -10.2244 -10.2130 -10.2094
-10.2046 -10.2001 -10.1980 -10.1962 -10.1880  -1.0815  -0.9638  -0.8709
 -0.8324  -0.7842  -0.7674  -0.7417  -0.6756  -0.6484  -0.6276  -0.5903
 -0.5700  -0.5410  -0.5003  -0.4877  -0.4855  -0.4684  -0.4614  -0.4426
 -0.4266  -0.4228  -0.3952  -0.3802  -0.3754  -0.3628  -0.3594  -0.3094
 -0.3068  -0.2648  -0.2609  -0.2340  -0.2197

          Ground-State Mulliken Net Atomic Charges

     Atom                 Charge (a.u.)
  ----------------------------------------
      1 C                    -0.331667
      2 C                    -0.105381
      3 C                     0.340421
      4 C                    -0.270427
      5 C                     0.177212
      6 C                    -0.099890
      7 C                    -0.342742
      8 C                     0.452116
      9 N                    -0.521503
     10 C                    -0.018686
     11 C                     0.028337
     12 N                    -0.298220
     13 N                    -0.386870
     14 H                     0.147271
     15 H                     0.171557
     16 H                     0.132769
     17 H                     0.136951
     18 H                     0.174084
     19 H                     0.148372
     20 H                     0.157740
     21 H                     0.143733
     22 H                     0.164824
  ----------------------------------------
  Sum of atomic charges =     0.000000

                    Cartesian Multipole Moments
 -----------------------------------------------------------------
    Charge (ESU x 10^10)
                 0.0000
    Dipole Moment (Debye)
         X       1.3830      Y       1.3014      Z      -0.0007
       Tot       1.8990
    Quadrupole Moments (Debye-Ang)
        XX     -73.6998     XY      -0.2133     YY     -62.1174
        XZ      -0.0081     YZ      -0.0018     ZZ     -78.2569

 Total job time:  31.60s(wall), 31.49s(cpu)
        *  Thank you very much for using Q-Chem.  Have a nice day.  *
