 Q-Chem 5.2, Q-Chem, Inc., Pleasanton, CA (2019)
 Q-Chem 5.2.1 for Intel X86 EM64T Linux

User input:
--------------------------------------------------------------
$molecule
0 1
C         3.99605073140000    1.52893732610000    0.34271683450000
C         3.70007190280000    0.24939286580000    0.14543386170000
C         2.36473953750000   -0.31126772020000   -0.00944848270000
C         2.21260158800000   -1.68443816270000   -0.23336453120000
C         0.96731147370000   -2.25605777930000   -0.38115211670000
C        -0.20266918430000   -1.49237239230000   -0.29338497860000
C        -1.50042300730000   -2.15070622360000   -0.39468760100000
C        -2.54374445680000   -1.89367321370000    0.37979438000000
C        -0.03518242470000   -0.12624310950000   -0.09862109570000
S        -1.37422272470000    1.03586909650000   -0.12409174070000
O        -0.87361670950000    2.35469791810000   -0.29972135620000
O        -2.51522911240000    0.62065799500000   -0.85881628390000
F        -1.80513743030000    0.96883359420000    1.47550680480000
C         1.20291836740000    0.45974569990000    0.03646226230000
H         5.01664564720000    1.85410130480000    0.44748837110000
H         3.24551392030000    2.29739761830000    0.40568418830000
H         4.50157209350000   -0.47653561870000    0.08903069070000
H         3.09264737540000   -2.30845421760000   -0.29505626270000
H         0.88077189530000   -3.31928142180000   -0.55002369300000
H        -1.54975801490000   -2.94663550660000   -1.12726372700000
H        -2.51844149490000   -1.15335187010000    1.15736297300000
H        -3.46621611350000   -2.43623482380000    0.26689842670000
H         1.23473924670000    1.52845801390000    0.16407550500000
$end

$rem
BASIS = 6-31G*
GUI = 2
METHOD = B3LYP
PRINT_ORBITALS false
MOLDEN_FORMAT false
--------------------------------------------------------------

             Standard Nuclear Orientation (Angstroms)
    I     Atom           X                Y                Z
 ----------------------------------------------------------------
    1      C       4.0044194203    -1.4263395726    -0.1715992610
    2      C       3.6547067214    -0.1469197437    -0.1041901081
    3      C       2.2962958350     0.3704257912    -0.0119143235
    4      C       2.0862434547     1.7515478099     0.0732994284
    5      C       0.8174090100     2.2828222017     0.1578233767
    6      C      -0.3195827289     1.4662718782     0.1414363125
    7      C      -1.6439818779     2.0769547958     0.1708286254
    8      C      -2.6692581342     1.7010838396    -0.5787963320
    9      C      -0.0947322428     0.0956861026     0.0845953699
   10      S      -1.3853188322    -1.1127318486     0.2198535244
   11      O      -0.8327431538    -2.3856298772     0.5283212433
   12      O      -2.5485902349    -0.6742634659     0.9044418029
   13      F      -1.8049079366    -1.2230348105    -1.3803573957
   14      C       1.1673977923    -0.4489091304     0.0141129148
   15      H       5.0383122400    -1.7176468105    -0.2388926528
   16      H       3.2864885195    -2.2277532361    -0.1609703061
   17      H       4.4253512811     0.6136733663    -0.1168834754
   18      H       2.9394856770     2.4146094404     0.0763781750
   19      H       0.6860384917     3.3530529071     0.2194614021
   20      H      -1.7320784968     2.9390436876     0.8201720440
   21      H      -2.6070606101     0.8888073782    -1.2785586250
   22      H      -3.6140693558     2.2134053790    -0.5246580804
   23      H       1.2439686095    -1.5227663296    -0.0061686971
 ----------------------------------------------------------------

    9   -1034.8453475203      6.42e-06  Convergence criterion met
 Total energy in the final basis set =    -1034.8453475203

                    Orbital Energies (a.u.)
 --------------------------------------------------------------

 Alpha MOs
 -- Occupied --
-89.1457 -24.7181 -19.1684 -19.1678 -10.2464 -10.2339 -10.2237 -10.2222
-10.2186 -10.2164 -10.2086 -10.2028 -10.1979 -10.1934  -8.1706  -6.1371
 -6.1343  -6.1327  -1.2290  -1.1260  -1.0431  -0.9048  -0.8350  -0.8016
 -0.7868  -0.7407  -0.6974  -0.6583  -0.6261  -0.5939  -0.5874  -0.5489
 -0.5317  -0.5073  -0.4991  -0.4888  -0.4796  -0.4635  -0.4512  -0.4453
 -0.4345  -0.4290  -0.4083  -0.4059  -0.3876  -0.3827  -0.3775  -0.3639
 -0.3474  -0.3431  -0.3326  -0.3231  -0.2909  -0.2790  -0.2362

          Ground-State Mulliken Net Atomic Charges

     Atom                 Charge (a.u.)
  ----------------------------------------
      1 C                    -0.345668
      2 C                    -0.114983
      3 C                     0.185085
      4 C                    -0.183248
      5 C                    -0.170945
      6 C                     0.156591
      7 C                    -0.141118
      8 C                    -0.315671
      9 C                    -0.236804
     10 S                     1.222662
     11 O                    -0.465554
     12 O                    -0.454741
     13 F                    -0.330009
     14 C                    -0.216942
     15 H                     0.155164
     16 H                     0.158354
     17 H                     0.135109
     18 H                     0.145954
     19 H                     0.147035
     20 H                     0.145335
     21 H                     0.175745
     22 H                     0.155638
     23 H                     0.193013
  ----------------------------------------
  Sum of atomic charges =     0.000000

                    Cartesian Multipole Moments
 -----------------------------------------------------------------
    Charge (ESU x 10^10)
                 0.0000
    Dipole Moment (Debye)
         X       3.4272      Y       3.6110      Z      -0.5720
       Tot       5.0112
    Quadrupole Moments (Debye-Ang)
        XX     -80.7658     XY      -4.8571     YY     -83.4437
        XZ       2.1985     YZ       2.5528     ZZ     -90.5977

 Total job time:  38.99s(wall), 38.86s(cpu)
        *  Thank you very much for using Q-Chem.  Have a nice day.  *
