 Q-Chem 5.2, Q-Chem, Inc., Pleasanton, CA (2019)
 Q-Chem 5.2.1 for Intel X86 EM64T Linux

User input:
--------------------------------------------------------------
$molecule
0 1
C        -5.90665089090000    0.34049929680000    0.03949791900000
C        -4.83342579110000   -0.44066713870000   -0.01046396840000
C        -3.43971947750000   -0.01631738680000   -0.00737135050000
C        -3.05471322360000    1.32591160370000   -0.00089255510000
C        -1.72128698520000    1.71023433350000    0.00253682010000
C        -0.74608544250000    0.73208211890000   -0.00057869170000
C        -1.11937503380000   -0.62560602070000   -0.00827879550000
C        -2.44170650950000   -1.00328799570000   -0.01266143770000
C         0.10270745010000   -1.47322375790000   -0.01134082800000
O         0.16809172160000   -2.68041831380000   -0.01778958110000
C         1.22755712190000   -0.49961135220000   -0.00464808650000
C         2.58083642450000   -0.74125168240000   -0.00418485380000
C         3.46770622710000    0.34613027630000    0.00239581100000
C         4.91457507610000    0.17844821700000    0.00376930920000
C         5.57860337570000   -0.97202937690000    0.01132265470000
C         2.94116456110000    1.63999603170000    0.00754701230000
C         1.57508244890000    1.88691941830000    0.00736252920000
C         0.71038274470000    0.81078190200000    0.00137957090000
H        -6.89922156100000   -0.07580513320000    0.03330550290000
H        -5.84926899710000    1.41427163610000    0.09028635220000
H        -4.97164206430000   -1.51405592930000   -0.05500949160000
H        -3.81354184210000    2.09308381450000   -0.00093080820000
H        -1.45832606090000    2.75767702920000    0.00696864230000
H        -2.70489249340000   -2.05111508530000   -0.01890161280000
H         2.94023439120000   -1.75800001360000   -0.00947272960000
H         5.47465749660000    1.10593445720000   -0.00097650420000
H         5.08860409420000   -1.93016562780000    0.01765027710000
H         6.65478485880000   -0.99447615800000    0.01200046170000
H         3.62416928430000    2.47821570160000    0.01225106860000
H         1.20466635230000    2.90125725070000    0.01180752180000
$end

$rem
BASIS = 6-31G*
GUI = 2
METHOD = B3LYP
PRINT_ORBITALS false
MOLDEN_FORMAT false
--------------------------------------------------------------

             Standard Nuclear Orientation (Angstroms)
    I     Atom           X                Y                Z
 ----------------------------------------------------------------
    1      C       5.9094776891    -0.1921249703     0.0364197899
    2      C       4.8192146428     0.5653611924    -0.0090830465
    3      C       3.4352413432     0.1102606271    -0.0081102860
    4      C       3.0800345077    -1.2401755431    -0.0089513855
    5      C       1.7554408188    -1.6539272830    -0.0074310436
    6      C       0.7588309085    -0.6975945034    -0.0050203024
    7      C       1.1019815072     0.6680442027    -0.0053137190
    8      C       2.4156298483     1.0749166117    -0.0078221244
    9      C      -0.1385601506     1.4884124208    -0.0035293612
   10      O      -0.2306452236     2.6938814936    -0.0033317221
   11      C      -1.2415865666     0.4901223167    -0.0020170725
   12      C      -2.5998817460     0.7017478035    -0.0000186915
   13      C      -3.4624689085    -0.4050149163     0.0007197331
   14      C      -4.9126937751    -0.2694047037     0.0032360964
   15      C      -5.6020172676     0.8660366352     0.0172153081
   16      C      -2.9074217281    -1.6869196364    -0.0013223623
   17      C      -1.5362098852    -1.9035449976    -0.0030729968
   18      C      -0.6955383890    -0.8085177267    -0.0032721502
   19      H       6.8925907877     0.2460718442     0.0323643459
   20      H       5.8758862193    -1.2671669983     0.0813133808
   21      H       4.9336308941     1.6417744302    -0.0477482822
   22      H       3.8556546672    -1.9903544099    -0.0133229620
   23      H       1.5157252788    -2.7069415731    -0.0087172074
   24      H       2.6555613899     2.1283301091    -0.0083422073
   25      H      -2.9816936337     1.7103069661     0.0003377951
   26      H      -5.4521151746    -1.2090189252    -0.0065227268
   27      H      -5.1333396878     1.8347331977     0.0287351176
   28      H      -6.6784317165     0.8646568481     0.0181809470
   29      H      -3.5717081860    -2.5400627995    -0.0011219510
   30      H      -1.1434361416    -2.9094458160    -0.0042607862
 ----------------------------------------------------------------

    9    -730.2338213623      3.72e-06  Convergence criterion met
 Total energy in the final basis set =     -730.2338213623

                    Orbital Energies (a.u.)
 --------------------------------------------------------------

 Alpha MOs
 -- Occupied --
-19.1428 -10.2729 -10.2070 -10.2063 -10.2063 -10.2061 -10.2032 -10.2026
-10.2022 -10.2014 -10.2014 -10.2013 -10.1962 -10.1958 -10.1943 -10.1938
-10.1860 -10.1850  -1.0432  -0.9006  -0.8682  -0.8295  -0.7909  -0.7820
 -0.7590  -0.7526  -0.7150  -0.6756  -0.6518  -0.6149  -0.6011  -0.5861
 -0.5708  -0.5397  -0.5192  -0.5064  -0.4864  -0.4719  -0.4612  -0.4565
 -0.4481  -0.4392  -0.4347  -0.4327  -0.4264  -0.4092  -0.3985  -0.3801
 -0.3752  -0.3735  -0.3701  -0.3574  -0.3512  -0.3470  -0.3304  -0.2957
 -0.2686  -0.2632  -0.2504  -0.2494  -0.2095

          Ground-State Mulliken Net Atomic Charges

     Atom                 Charge (a.u.)
  ----------------------------------------
      1 C                    -0.354467
      2 C                    -0.108951
      3 C                     0.180027
      4 C                    -0.189360
      5 C                    -0.191284
      6 C                     0.083318
      7 C                     0.047613
      8 C                    -0.258888
      9 C                     0.343656
     10 O                    -0.458937
     11 C                     0.045847
     12 C                    -0.242514
     13 C                     0.183588
     14 C                    -0.118712
     15 C                    -0.349358
     16 C                    -0.204522
     17 C                    -0.191303
     18 C                     0.082995
     19 H                     0.148731
     20 H                     0.143248
     21 H                     0.133892
     22 H                     0.133895
     23 H                     0.136227
     24 H                     0.153831
     25 H                     0.153759
     26 H                     0.128503
     27 H                     0.150643
     28 H                     0.147802
     29 H                     0.134994
     30 H                     0.135728
  ----------------------------------------
  Sum of atomic charges =     0.000000

                    Cartesian Multipole Moments
 -----------------------------------------------------------------
    Charge (ESU x 10^10)
                 0.0000
    Dipole Moment (Debye)
         X       0.2264      Y      -3.2008      Z      -0.0005
       Tot       3.2088
    Quadrupole Moments (Debye-Ang)
        XX     -84.9276     XY       1.1092     YY    -100.2040
        XZ       0.0063     YZ      -0.0519     ZZ    -107.4416

 Total job time:  60.50s(wall), 60.33s(cpu)
        *  Thank you very much for using Q-Chem.  Have a nice day.  *
