 Q-Chem 5.4, Q-Chem, Inc., Pleasanton, CA (2021)
 Q-Chem 5.4.2 for Intel X86 EM64T Linux

User input:
--------------------------------------------------------------
$molecule
0 1
C           -4.44914360000000       -0.77839381440000        0.26502366870000
C           -3.63707225460000        0.26483080200000        0.36973643370000
C           -2.20425706630000        0.24360580980000        0.08032837780000
C           -1.45605036510000       -0.90672687410000        0.30679058290000
C           -0.09152069030000       -0.97773547190000        0.06907069670000
C            0.62510064780000       -2.27147726840000        0.30548171620000
C            0.55259964290000        0.16452508690000       -0.41596090730000
C            1.98773482750000        0.23394150060000       -0.70152179210000
C            2.97224095060000       -0.16962186320000        0.08117962710000
F            2.87407867010000       -0.71230529640000        1.28919100210000
F            4.26325097430000       -0.05352664270000       -0.23642981560000
C           -0.19973510990000        1.30939450250000       -0.67935142660000
C           -1.55717894060000        1.37914782100000       -0.43064196270000
C           -2.31243236340000        2.63883602980000       -0.73142314770000
H           -5.49737108630000       -0.70368010380000        0.49927350200000
H           -4.10651263740000       -1.74104464300000       -0.07577728430000
H           -4.04010552930000        1.21940893710000        0.68127783040000
H           -1.95582395440000       -1.77948757570000        0.70074494730000
H           -0.06310986280000       -3.10691975980000        0.19922493710000
H            1.03641468120000       -2.30175762750000        1.31389148680000
H            1.44512288660000       -2.40168978260000       -0.39769395740000
H            2.28293054030000        0.71901639580000       -1.62109627240000
H            0.30753094240000        2.17805184540000       -1.07597411460000
H           -1.66627325560000        3.36388309260000       -1.21989368360000
H           -2.69295703660000        3.08624867900000        0.18695150470000
H           -3.16057572260000        2.43357506040000       -1.38264072900000
$end

$rem
BASIS = 6-31G*
GUI = 2
METHOD = B3LYP
PRINT_ORBITALS false
MOLDEN_FORMAT false
$end
--------------------------------------------------------------

             Standard Nuclear Orientation (Angstroms)
    I     Atom           X                Y                Z
 ----------------------------------------------------------------
    1      C       4.1650443015    -1.4361310340     0.0882337230
    2      C       3.5054695770    -0.3793700297    -0.3666943989
    3      C       2.0912607874    -0.1039956781    -0.1190063839
    4      C       1.1835138041    -1.1483440641     0.0213344324
    5      C      -0.1713476233    -0.9458742851     0.2377846577
    6      C      -1.0682374186    -2.1320894558     0.4157914336
    7      C      -0.6366250088     0.3704918731     0.3126374238
    8      C      -2.0404760004     0.7297737629     0.5273362191
    9      C      -3.0904266467     0.2377914538    -0.1053518988
   10      F      -3.0985403680    -0.6742396519    -1.0705285944
   11      F      -4.3442940686     0.6308219643     0.1278952789
   12      C       0.2753247825     1.4210794794     0.2090933063
   13      C       1.6227328721     1.2148813845    -0.0175108910
   14      C       2.5546139988     2.3845903086    -0.1227251291
   15      H       5.2074425938    -1.5894818252    -0.1334086035
   16      H       3.6987159423    -2.1786359870     0.7139030767
   17      H       4.0311487043     0.3565315783    -0.9606839248
   18      H       1.5460019245    -2.1627542416    -0.0577811686
   19      H      -0.5020007803    -2.9764670840     0.8021731837
   20      H      -1.5037764026    -2.4283776807    -0.5378885342
   21      H      -1.8813277767    -1.9112744814     1.1042481248
   22      H      -2.2423960800     1.5224272442     1.2337243048
   23      H      -0.0950922382     2.4335667124     0.2918871309
   24      H       2.0287311996     3.3119177660     0.0901818191
   25      H       2.9721485852     2.4529526258    -1.1274044662
   26      H       3.3808297030     2.2835322697     0.5792139314
 ----------------------------------------------------------------

    9    -664.1438768920      6.46e-06  Convergence criterion met
 Total energy in the final basis set =     -664.1438768920

                    Orbital Energies (a.u.)
 --------------------------------------------------------------

 Alpha MOs
 -- Occupied --
-24.7385 -24.7305 -10.3528 -10.1986 -10.1974 -10.1915 -10.1909 -10.1889
-10.1885 -10.1820 -10.1808 -10.1796 -10.1795 -10.1749  -1.2803  -1.2197
 -0.8714  -0.8181  -0.7827  -0.7766  -0.7255  -0.7167  -0.6567  -0.6436
 -0.6150  -0.5854  -0.5704  -0.5507  -0.5178  -0.5115  -0.4916  -0.4692
 -0.4554  -0.4408  -0.4378  -0.4328  -0.4252  -0.4245  -0.4097  -0.4076
 -0.4007  -0.3938  -0.3731  -0.3724  -0.3503  -0.3363  -0.3310  -0.2985
 -0.2627  -0.2371  -0.2130

          Ground-State Mulliken Net Atomic Charges

     Atom                 Charge (a.u.)
  ----------------------------------------
      1 C                    -0.337812
      2 C                    -0.130699
      3 C                     0.120931
      4 C                    -0.257603
      5 C                     0.143582
      6 C                    -0.536305
      7 C                     0.127273
      8 C                    -0.345087
      9 C                     0.564738
     10 F                    -0.234529
     11 F                    -0.250382
     12 C                    -0.250172
     13 C                     0.128242
     14 C                    -0.536260
     15 H                     0.141990
     16 H                     0.144085
     17 H                     0.131778
     18 H                     0.122529
     19 H                     0.152726
     20 H                     0.172230
     21 H                     0.155807
     22 H                     0.167623
     23 H                     0.119247
     24 H                     0.156146
     25 H                     0.162795
     26 H                     0.167129
  ----------------------------------------
  Sum of atomic charges =     0.000000

                    Cartesian Multipole Moments
 -----------------------------------------------------------------
    Charge (ESU x 10^10)
                 0.0000
    Dipole Moment (Debye)
         X       1.1078      Y       0.4527      Z       0.3903
       Tot       1.2588
    Quadrupole Moments (Debye-Ang)
        XX     -80.8021     XY       0.1084     YY     -74.8624
        XZ      -2.4101     YZ      -0.6062     ZZ     -82.0972

 Total job time:  72.31s(wall), 62.74s(cpu)
        *  Thank you very much for using Q-Chem.  Have a nice day.  *
