 Q-Chem 5.2, Q-Chem, Inc., Pleasanton, CA (2019)
 Q-Chem 5.2.1 for Intel X86 EM64T Linux

User input:
--------------------------------------------------------------
$molecule
0 1
C         2.87004376230000   -0.89481414570000    2.11816069180000
O         1.88838276310000   -1.50232975750000    1.28983694320000
C         2.34358431140000   -2.34654483590000    0.35413392070000
C         1.23667317570000   -2.94524270620000   -0.44215623200000
C         0.15589547710000   -2.20006951150000   -0.93294990420000
N         0.10023049480000   -0.80621850330000   -0.79591637960000
C         1.24760034850000   -0.04106624820000   -0.97813276050000
C         1.44560285750000    1.12480260470000   -0.23946294480000
C         2.60532558910000    1.86234577230000   -0.41328011570000
C         2.77627158250000    3.08855834130000    0.43536418400000
F         1.74898384210000    3.94876826010000    0.30088127880000
F         2.82959923500000    2.78547484090000    1.74977552180000
F         3.88855437820000    3.78109294370000    0.16422431500000
C         3.58648672640000    1.46520630250000   -1.31053355080000
C         3.38325670860000    0.30874634600000   -2.04656948170000
C         2.23141511320000   -0.43537398410000   -1.88989358630000
C        -1.11541781750000   -0.20454819660000   -0.45258568700000
C        -1.98903496660000   -0.83672489530000    0.43245375810000
C        -3.19459567540000   -0.25819974280000    0.76540582560000
C        -3.56846761430000    0.97658721830000    0.22834197190000
C        -4.82064460990000    1.64316955350000    0.53686975250000
C        -5.81202739150000    1.22084901180000    1.30886386490000
F        -5.89448381890000    0.08041066070000    1.98495067410000
F        -6.92316614670000    1.92531945570000    1.51606962550000
C        -2.68573459760000    1.60440189080000   -0.65548662350000
C        -1.48278444960000    1.02686886250000   -0.99628529310000
C        -0.86681329080000   -2.86428593990000   -1.60986542960000
C        -0.81294443770000   -4.23008425560000   -1.80616872920000
C         0.27663580680000   -4.95959074970000   -1.35513540770000
C         1.29671567130000   -4.31394043930000   -0.68293410070000
O         3.50718581150000   -2.62255000760000    0.21123575040000
H         2.37731115630000   -0.07334170670000    2.63145673670000
H         3.69937183570000   -0.52640967020000    1.51146148990000
H         3.25340208850000   -1.62004084590000    2.83847665800000
H         0.70802924840000    1.44172018010000    0.48200823900000
H         4.48670359770000    2.04643692140000   -1.42763942390000
H         4.13267161550000   -0.01381656150000   -2.75188980680000
H         2.08645214120000   -1.33118531710000   -2.47471761460000
H        -1.70772827590000   -1.78480118880000    0.86535606500000
H        -3.84197874600000   -0.76986744620000    1.45793208610000
H        -4.97670903200000    2.61024002320000    0.08083342340000
H        -2.95497946020000    2.55664779190000   -1.08756894180000
H        -0.82240416770000    1.52370613890000   -1.69131420620000
H        -1.70105241050000   -2.29189118810000   -1.98764091870000
H        -1.61619211060000   -4.72440749500000   -2.33124677660000
H         0.32868050890000   -6.02332245960000   -1.52598223140000
H         2.15248365370000   -4.86078823860000   -0.31725680940000
$end

$rem
BASIS = 6-31G*
GUI = 2
METHOD = B3LYP
PRINT_ORBITALS false
MOLDEN_FORMAT false
--------------------------------------------------------------

             Standard Nuclear Orientation (Angstroms)
    I     Atom           X                Y                Z
 ----------------------------------------------------------------
    1      C       2.5997375045     0.0917087966    -2.5760867879
    2      O       1.7940349613     0.9508295766    -1.7813486766
    3      C       2.4418933476     1.9000309759    -1.0923320516
    4      C       1.5075075063     2.7585464761    -0.3128170454
    5      C       0.4403929757     2.2453843382     0.4369650239
    6      N       0.2449208275     0.8659176685     0.5904569024
    7      C       1.3347291310     0.0251781588     0.7919346988
    8      C       1.3297062103    -1.2738787693     0.2854624486
    9      C       2.4330155535    -2.0906534067     0.4718138160
   10      C       2.3813665248    -3.4663069634    -0.1264558676
   11      F       1.3095963927    -4.1649548594     0.2937426082
   12      F       2.2858650450    -3.4247099185    -1.4723866849
   13      F       3.4547291682    -4.2154809902     0.1508975801
   14      C       3.5557789593    -1.6438517956     1.1538924900
   15      C       3.5544653968    -0.3538852182     1.6602870659
   16      C       2.4617924735     0.4716580370     1.4883984996
   17      C      -1.0536418743     0.3504282406     0.5150281229
   18      C      -1.9782956467     0.8980746381    -0.3744930660
   19      C      -3.2634889590     0.4059936228    -0.4456230775
   20      C      -3.6695321078    -0.6553657619     0.3677414574
   21      C      -5.0052258595    -1.2235180027     0.3433721736
   22      C      -6.0495264310    -0.8460637624    -0.3805988079
   23      F      -6.1207458510     0.1481739738    -1.2586142900
   24      F      -7.2358370554    -1.4478681876    -0.3147147953
   25      C      -2.7356570953    -1.2000072733     1.2541752749
   26      C      -1.4520849145    -0.7071203120     1.3334349167
   27      C      -0.4209868077     3.1358448407     1.0776180332
   28      C      -0.2218697809     4.4993326120     0.9876436761
   29      C       0.8578461230     5.0037285691     0.2787049082
   30      C       1.7188863315     4.1325658192    -0.3608004264
   31      O       3.6338529460     2.0658031329    -1.1404890947
   32      H       1.9729787479    -0.7513619258    -2.8544398672
   33      H       3.4668084114    -0.2461755359    -2.0054616458
   34      H       2.9460736632     0.6202861899    -3.4662719758
   35      H       0.4778281386    -1.6365477541    -0.2692872299
   36      H       4.4090716846    -2.2897349429     1.2829650210
   37      H       4.4163817741     0.0099149331     2.1968463836
   38      H       2.4750294549     1.4722592049     1.8935323499
   39      H      -1.6749451248     1.7097599839    -1.0183345683
   40      H      -3.9497776940     0.8470435146    -1.1491741172
   41      H      -5.1835242785    -2.0634104090     0.9993759467
   42      H      -3.0275746565    -2.0172677425     1.8966934809
   43      H      -0.7513309425    -1.1346865798     2.0349657736
   44      H      -1.2445754299     2.7422678915     1.6547696141
   45      H      -0.9016831038     5.1707762687     1.4899249786
   46      H       1.0252738917     6.0679193750     0.2249619105
   47      H       2.5630957507     4.5010888516    -0.9234748152
 ----------------------------------------------------------------

    9   -1590.4674962865      6.14e-06  Convergence criterion met
 Total energy in the final basis set =    -1590.4674962865

                    Orbital Energies (a.u.)
 --------------------------------------------------------------

 Alpha MOs
 -- Occupied --
-24.7459 -24.7352 -24.7246 -24.7172 -24.7172 -19.1924 -19.1355 -14.3804
-10.4280 -10.3574 -10.3162 -10.2453 -10.2431 -10.2362 -10.2352 -10.2146
-10.2092 -10.2081 -10.2051 -10.2032 -10.2027 -10.2017 -10.2012 -10.1995
-10.1994 -10.1987 -10.1976 -10.1966 -10.1950 -10.1947 -10.1939  -1.3038
 -1.2866  -1.2258  -1.2147  -1.2082  -1.1102  -1.0195  -0.9949  -0.8805
 -0.8772  -0.8610  -0.8120  -0.7888  -0.7832  -0.7777  -0.7583  -0.7555
 -0.7319  -0.7200  -0.6973  -0.6583  -0.6512  -0.6345  -0.6269  -0.6211
 -0.6208  -0.5968  -0.5824  -0.5778  -0.5758  -0.5735  -0.5626  -0.5500
 -0.5352  -0.5236  -0.5203  -0.5095  -0.5040  -0.4967  -0.4818  -0.4808
 -0.4745  -0.4704  -0.4592  -0.4564  -0.4551  -0.4515  -0.4500  -0.4452
 -0.4423  -0.4421  -0.4337  -0.4282  -0.4237  -0.4165  -0.4140  -0.4101
 -0.4077  -0.4006  -0.3946  -0.3930  -0.3870  -0.3856  -0.3772  -0.3740
 -0.3713  -0.3667  -0.3595  -0.3527  -0.3508  -0.3330  -0.3075  -0.2958
 -0.2835  -0.2731  -0.2687  -0.2618  -0.2588  -0.2403  -0.1914

          Ground-State Mulliken Net Atomic Charges

     Atom                 Charge (a.u.)
  ----------------------------------------
      1 C                    -0.224837
      2 O                    -0.437162
      3 C                     0.538798
      4 C                     0.071930
      5 C                     0.254766
      6 N                    -0.649723
      7 C                     0.291725
      8 C                    -0.210787
      9 C                    -0.012348
     10 C                     0.776978
     11 F                    -0.268319
     12 F                    -0.269901
     13 F                    -0.265417
     14 C                    -0.171639
     15 C                    -0.126725
     16 C                    -0.168719
     17 C                     0.287806
     18 C                    -0.168709
     19 C                    -0.205996
     20 C                     0.200250
     21 C                    -0.299808
     22 C                     0.541458
     23 F                    -0.235843
     24 F                    -0.248101
     25 C                    -0.205009
     26 C                    -0.172660
     27 C                    -0.167349
     28 C                    -0.128937
     29 C                    -0.133185
     30 C                    -0.172087
     31 O                    -0.482582
     32 H                     0.169617
     33 H                     0.179742
     34 H                     0.162758
     35 H                     0.169939
     36 H                     0.149804
     37 H                     0.144571
     38 H                     0.157697
     39 H                     0.152671
     40 H                     0.143373
     41 H                     0.160033
     42 H                     0.134455
     43 H                     0.150865
     44 H                     0.153130
     45 H                     0.139279
     46 H                     0.136416
     47 H                     0.157780
  ----------------------------------------
  Sum of atomic charges =     0.000000

                    Cartesian Multipole Moments
 -----------------------------------------------------------------
    Charge (ESU x 10^10)
                 0.0000
    Dipole Moment (Debye)
         X      -0.9199      Y       1.9582      Z       1.3646
       Tot       2.5579
    Quadrupole Moments (Debye-Ang)
        XX    -181.5147     XY      -0.9185     YY    -168.7769
        XZ      -0.2970     YZ      -0.4135     ZZ    -165.5072

 Total job time:  211.57s(wall), 211.04s(cpu)
        *  Thank you very much for using Q-Chem.  Have a nice day.  *
