 Q-Chem 5.2, Q-Chem, Inc., Pleasanton, CA (2019)
 Q-Chem 5.2.1 for Intel X86 EM64T Linux

User input:
--------------------------------------------------------------
$molecule
0 1
C         5.92121917110000   -0.59531002510000    0.58131515830000
C         4.81745862430000   -1.33279913570000    0.61302475770000
C         3.45908086900000   -0.89037298880000    0.32776453160000
C         2.41975653350000   -1.81768034080000    0.37636508210000
C         1.11545699370000   -1.45168713480000    0.10290837020000
C         0.80735569990000   -0.13790562240000   -0.22568681490000
O        -0.44890250310000    0.30993070180000   -0.50324235450000
C        -1.52733887600000   -0.59451874360000   -0.45159992920000
C        -2.79035404280000    0.19784207660000   -0.84102840280000
C        -3.16721457050000    1.22990424730000    0.22929884620000
C        -3.82020316570000    0.56582394070000    1.43970787290000
C        -4.98255916810000   -0.30100766480000    0.96315920330000
C        -4.47231333910000   -1.29750358180000   -0.07586825810000
O        -3.86455068360000   -0.65416984220000   -1.17790073830000
C         1.83833256420000    0.82567512220000   -0.27103026590000
C         1.50314575370000    2.20245395450000   -0.62051494640000
C         2.23888665110000    3.27451683680000   -0.35580764770000
C         3.13819112310000    0.42562782850000   -0.00007150510000
H         6.88385793420000   -1.01995662720000    0.80905329090000
H         5.91779376820000    0.45080956780000    0.32815933810000
H         4.89919986340000   -2.38166612860000    0.87316762380000
H         2.63419509540000   -2.84696836070000    0.62684326670000
H         0.34284100120000   -2.20366039220000    0.14483275120000
H        -1.61814741410000   -1.01777844330000    0.55663324440000
H        -1.39206207240000   -1.41312655360000   -1.17175057900000
H        -2.55535027070000    0.71995976270000   -1.77629496880000
H        -3.87332610680000    1.93739142630000   -0.20976894660000
H        -2.26717688950000    1.77297750740000    0.51822381750000
H        -4.17439275390000    1.32987194080000    2.13392113310000
H        -3.09435411130000   -0.05347309940000    1.97129476770000
H        -5.74429916810000    0.33161099870000    0.50367331770000
H        -5.43490225250000   -0.84175541410000    1.79532186910000
H        -5.29703427240000   -1.86995505660000   -0.50669818350000
H        -3.77042412910000   -2.00096414470000    0.39535542690000
H         0.55020362010000    2.31766090940000   -1.11877161450000
H         3.17673623080000    3.22072045450000    0.17091856880000
H         1.91914399530000    4.25949245680000   -0.64993049940000
H         3.92276348510000    1.16175178000000   -0.06197122760000
$end

$rem
BASIS = 6-31G*
GUI = 2
METHOD = B3LYP
PRINT_ORBITALS false
MOLDEN_FORMAT false
--------------------------------------------------------------

             Standard Nuclear Orientation (Angstroms)
    I     Atom           X                Y                Z
 ----------------------------------------------------------------
    1      C       5.9626962721     0.6610098850    -0.3897146902
    2      C       4.8598496373     1.3982716599    -0.3317715543
    3      C       3.4974487074     0.9232794927    -0.1303998449
    4      C       2.4593606365     1.8506823359    -0.0614568519
    5      C       1.1512339430     1.4528915825     0.1397742586
    6      C       0.8379729411     0.1066039424     0.2750524915
    7      O      -0.4222147525    -0.3729044725     0.4694175612
    8      C      -1.4993807920     0.5323960949     0.5315863282
    9      C      -2.7680395507    -0.3039769261     0.7878725758
   10      C      -3.1306440497    -1.1733908952    -0.4226702484
   11      C      -3.7665647111    -0.3432267557    -1.5357377148
   12      C      -4.9349360312     0.4503494541    -0.9571943711
   13      C      -4.4385457733     1.2886542046     0.2191452233
   14      O      -3.8463436415     0.4944640200     1.2272562882
   15      C       1.8677408786    -0.8562266821     0.1976421688
   16      C       1.5270774203    -2.2677660543     0.3443210762
   17      C       2.2658529015    -3.2934223673    -0.0593413592
   18      C       3.1714098031    -0.4250664946     0.0036396216
   19      H       6.9285945830     1.1112357954    -0.5420297078
   20      H       5.9552563706    -0.4103843006    -0.2871235002
   21      H       4.9456955548     2.4731819618    -0.4398281646
   22      H       2.6777482794     2.9045190156    -0.1609160685
   23      H       0.3796484100     2.2051258465     0.1941459680
   24      H      -1.5760808903     1.0941951131    -0.4077900896
   25      H      -1.3736219599     1.2406100474     1.3620399586
   26      H      -2.5462028776    -0.9536751871     1.6429970466
   27      H      -3.8430928866    -1.9341258270    -0.0976915487
   28      H      -2.2269867621    -1.6723523135    -0.7732626639
   29      H      -4.1115452178    -1.0005612273    -2.3357699041
   30      H      -3.0331505176     0.3432390411    -1.9645017886
   31      H      -5.7032514605    -0.2390206129    -0.6021707212
   32      H      -5.3755019896     1.1044428443    -1.7105738040
   33      H      -5.2688330509     1.7964478100     0.7153794669
   34      H      -3.7298780206     2.0499604039    -0.1382899108
   35      H       0.5673052760    -2.4499396632     0.8083051999
   36      H       3.2108950227    -3.1679793212    -0.5603960703
   37      H       1.9415924333    -4.3093059812     0.0881585444
   38      H       3.9546834574    -1.1644646844    -0.0285556915
 ----------------------------------------------------------------

    9    -772.1386854992      2.75e-06  Convergence criterion met
 Total energy in the final basis set =     -772.1386854992

                    Orbital Energies (a.u.)
 --------------------------------------------------------------

 Alpha MOs
 -- Occupied --
-19.1849 -19.1484 -10.2486 -10.2416 -10.2370 -10.2305 -10.1915 -10.1880
-10.1871 -10.1860 -10.1853 -10.1849 -10.1843 -10.1830 -10.1829 -10.1800
-10.1742 -10.1732  -1.0764  -1.0394  -0.8644  -0.8082  -0.8006  -0.7846
 -0.7746  -0.7314  -0.7260  -0.6954  -0.6435  -0.6404  -0.6224  -0.6101
 -0.5694  -0.5537  -0.5451  -0.5382  -0.5081  -0.4937  -0.4797  -0.4746
 -0.4642  -0.4506  -0.4491  -0.4437  -0.4381  -0.4249  -0.4220  -0.4070
 -0.3988  -0.3935  -0.3813  -0.3778  -0.3704  -0.3605  -0.3518  -0.3451
 -0.3394  -0.3349  -0.3264  -0.3207  -0.2988  -0.2917  -0.2741  -0.2522
 -0.2286  -0.2021

          Ground-State Mulliken Net Atomic Charges

     Atom                 Charge (a.u.)
  ----------------------------------------
      1 C                    -0.356648
      2 C                    -0.116885
      3 C                     0.191264
      4 C                    -0.211075
      5 C                    -0.189901
      6 C                     0.323845
      7 O                    -0.523788
      8 C                    -0.059487
      9 C                     0.121117
     10 C                    -0.282804
     11 C                    -0.280785
     12 C                    -0.271971
     13 C                    -0.034305
     14 O                    -0.478968
     15 C                     0.103115
     16 C                    -0.103382
     17 C                    -0.347455
     18 C                    -0.265023
     19 H                     0.140821
     20 H                     0.140139
     21 H                     0.123092
     22 H                     0.128555
     23 H                     0.135367
     24 H                     0.139051
     25 H                     0.152478
     26 H                     0.146095
     27 H                     0.141904
     28 H                     0.158886
     29 H                     0.142331
     30 H                     0.135912
     31 H                     0.144124
     32 H                     0.134857
     33 H                     0.146401
     34 H                     0.117515
     35 H                     0.145919
     36 H                     0.139840
     37 H                     0.141394
     38 H                     0.128457
  ----------------------------------------
  Sum of atomic charges =     0.000000

                    Cartesian Multipole Moments
 -----------------------------------------------------------------
    Charge (ESU x 10^10)
                 0.0000
    Dipole Moment (Debye)
         X      -1.1892      Y       0.8411      Z      -1.2662
       Tot       1.9299
    Quadrupole Moments (Debye-Ang)
        XX    -102.9417     XY      -1.1452     YY    -100.3186
        XZ       3.9128     YZ      -1.0593     ZZ    -112.9344

 Total job time:  76.58s(wall), 76.36s(cpu)
        *  Thank you very much for using Q-Chem.  Have a nice day.  *
