 Q-Chem 5.2, Q-Chem, Inc., Pleasanton, CA (2019)
 Q-Chem 5.2.1 for Intel X86 EM64T Linux

User input:
--------------------------------------------------------------
$molecule
0 1
C         3.74530847590000    1.23546503090000   -0.00672086980000
C         3.41023248470000   -0.05184391720000   -0.00149156440000
C         2.06298365880000   -0.55169506320000    0.00155442410000
C         1.67191662390000   -1.86914039710000    0.00667523240000
C         0.28327788760000   -2.03804824540000    0.00798536910000
C        -0.40633829890000   -0.84863261870000    0.00405368290000
C        -1.83248208410000   -0.70621092150000    0.00385037120000
C        -2.51003642010000    0.43670917300000   -0.00107784350000
F        -1.99725594640000    1.66106809080000   -0.00606687030000
F        -3.83859954670000    0.50756651900000   -0.00120769380000
S         0.68350455960000    0.50397646970000   -0.00159836890000
H         4.77290559270000    1.55240537860000   -0.00925998270000
H         2.99636339420000    2.01032527070000   -0.00870364480000
H         4.17525887300000   -0.81808066880000    0.00049561450000
H         2.37210115230000   -2.68561561500000    0.00922315820000
H        -0.20531153250000   -2.99613763340000    0.01170607420000
H        -2.41398698950000   -1.61591043600000    0.00778993960000
$end

$rem
BASIS = 6-31G*
GUI = 2
METHOD = B3LYP
PRINT_ORBITALS false
MOLDEN_FORMAT false
--------------------------------------------------------------

             Standard Nuclear Orientation (Angstroms)
    I     Atom           X                Y                Z
 ----------------------------------------------------------------
    1      C       3.5223374068    -1.5856981250     0.0003386173
    2      C       3.3004912477    -0.2741143994     0.0004150322
    3      C       2.0018206639     0.3410232094    -0.0001161363
    4      C       1.7268166604     1.6874980689     0.0002109672
    5      C       0.3581301338     1.9765418324     0.0000992825
    6      C      -0.4323190659     0.8516039756    -0.0004980302
    7      C      -1.8654455458     0.8337561912    -0.0003351522
    8      C      -2.6398347540    -0.2459157607     0.0002466618
    9      F      -2.2354825778    -1.5102427615     0.0001169210
   10      F      -3.9695262185    -0.2009573943     0.0005876254
   11      S       0.5357546476    -0.5906768548    -0.0006964215
   12      H       4.5184756953    -1.9908168753     0.0012184031
   13      H       2.7088389284    -2.2924870265    -0.0005171348
   14      H       4.1292600913     0.4226851628     0.0012256700
   15      H       2.4953586914     2.4399869836     0.0006872581
   16      H      -0.0452807076     2.9735013766     0.0004167505
   17      H      -2.3656283751     1.7905915037    -0.0003965738
 ----------------------------------------------------------------

   10    -906.2744423892      2.77e-06  Convergence criterion met
 Total energy in the final basis set =     -906.2744423892

                    Orbital Energies (a.u.)
 --------------------------------------------------------------

 Alpha MOs
 -- Occupied --
-88.9056 -24.7481 -24.7394 -10.3605 -10.2298 -10.2181 -10.2135 -10.1986
-10.1932 -10.1923 -10.1819  -7.9674  -5.9315  -5.9278  -5.9243  -1.2890
 -1.2294  -0.8939  -0.8194  -0.7837  -0.7388  -0.7137  -0.6480  -0.6088
 -0.5854  -0.5562  -0.5449  -0.5244  -0.5228  -0.4860  -0.4581  -0.4450
 -0.4433  -0.4301  -0.4179  -0.3969  -0.3968  -0.3828  -0.3688  -0.3372
 -0.3243  -0.2713  -0.2558  -0.1988

          Ground-State Mulliken Net Atomic Charges

     Atom                 Charge (a.u.)
  ----------------------------------------
      1 C                    -0.375456
      2 C                    -0.054957
      3 C                    -0.142724
      4 C                    -0.139441
      5 C                    -0.136597
      6 C                    -0.133733
      7 C                    -0.235212
      8 C                     0.537726
      9 F                    -0.228065
     10 F                    -0.245275
     11 S                     0.263409
     12 H                     0.147007
     13 H                     0.156882
     14 H                     0.138434
     15 H                     0.139449
     16 H                     0.137413
     17 H                     0.171140
  ----------------------------------------
  Sum of atomic charges =     0.000000

                    Cartesian Multipole Moments
 -----------------------------------------------------------------
    Charge (ESU x 10^10)
                 0.0000
    Dipole Moment (Debye)
         X       0.6281      Y       1.5275      Z       0.0010
       Tot       1.6516
    Quadrupole Moments (Debye-Ang)
        XX     -64.3634     XY      -1.5298     YY     -62.8711
        XZ       0.0054     YZ       0.0018     ZZ     -71.7010

 Total job time:  21.02s(wall), 20.93s(cpu)
        *  Thank you very much for using Q-Chem.  Have a nice day.  *
