 Q-Chem 5.2, Q-Chem, Inc., Pleasanton, CA (2019)
 Q-Chem 5.2.1 for Intel X86 EM64T Linux

User input:
--------------------------------------------------------------
$molecule
0 1
C        -6.28205069720000   -0.90824982260000    0.01338824880000
C        -5.12078611440000   -1.29035358680000    0.53309880660000
C        -3.79720677730000   -0.83125979170000    0.14124623790000
C        -3.57185371850000    0.11676720520000   -0.85642579630000
C        -2.29470625930000    0.51589234610000   -1.19133093380000
C        -1.17466049870000    0.00161642080000   -0.53493237180000
C        -1.40289675310000   -0.94462307860000    0.46807876700000
C        -2.67914468140000   -1.35833198290000    0.78993164460000
S        -0.04423050650000   -1.59236654170000    1.40780456470000
C         1.20534211450000   -1.51856810540000    0.15163165690000
C         2.23749707260000   -2.43310960610000    0.19687192360000
C         3.28398560010000   -2.39144269370000   -0.72599186550000
C         4.36451520500000   -3.35862919800000   -0.61099235700000
C         5.45807941050000   -3.42189854460000   -1.36241387040000
C         3.22423386610000   -1.41530111200000   -1.72010630190000
C         2.18003091160000   -0.51587448460000   -1.77907562040000
C         1.15551451620000   -0.52518261350000   -0.83024600580000
N         0.11582218120000    0.39794932660000   -0.87292726820000
C         0.34652259640000    1.73316360230000   -1.38125941090000
C        -0.13694841920000    2.79311038800000   -0.38509976190000
C         0.60121181030000    2.67804628240000    0.94716898370000
C         0.07756526810000    3.64146899070000    2.01186549370000
C         0.25444922260000    5.12510221760000    1.68355277780000
C         1.71399574400000    5.53929363320000    1.53604810650000
H        -7.21369358190000   -1.31105501460000    0.37167222470000
H        -6.35701569470000   -0.18785327000000   -0.78293312720000
H        -5.12111571010000   -2.02197876810000    1.33204336730000
H        -4.40480650390000    0.54985067590000   -1.38737919370000
H        -2.16539081200000    1.23859737900000   -1.98130798950000
H        -2.80299583530000   -2.08719019360000    1.57744086900000
H         2.23680568180000   -3.17439363290000    0.98249930220000
H         4.23293747600000   -4.08328436390000    0.18339152440000
H         5.65669363610000   -2.73113209740000   -2.16373534250000
H         6.20568660960000   -4.17861379860000   -1.19810460630000
H         3.99655023000000   -1.36137658890000   -2.47092399810000
H         2.15481531390000    0.20241672310000   -2.58431521180000
H        -0.13048396720000    1.88225083140000   -2.35833888380000
H         1.42283076070000    1.85661557740000   -1.50896202370000
H        -1.20912455810000    2.68333247230000   -0.21297033430000
H         0.03704274290000    3.77357242210000   -0.83037777610000
H         1.66856061930000    2.84324619530000    0.78882902820000
H         0.48298165170000    1.66093729280000    1.32776899320000
H         0.59435763380000    3.42893004130000    2.95081945820000
H        -0.98562871140000    3.44303986760000    2.17000112730000
H        -0.19555503360000    5.70551451640000    2.49266895100000
H        -0.28880193750000    5.37056619030000    0.76930926300000
H         2.28105500210000    5.25371041320000    2.41947393000000
H         1.78956600420000    6.61761188480000    1.41436615190000
H         2.17009249590000    5.07030951600000    0.66798057320000
$end

$rem
BASIS = 6-31G*
GUI = 2
METHOD = B3LYP
PRINT_ORBITALS false
MOLDEN_FORMAT false
--------------------------------------------------------------

             Standard Nuclear Orientation (Angstroms)
    I     Atom           X                Y                Z
 ----------------------------------------------------------------
    1      C      -5.2605954055     3.5818200591     0.2940482722
    2      C      -4.1440977176     3.3440876838    -0.3853293932
    3      C      -3.0767209959     2.4277282021    -0.0149646485
    4      C      -3.0986694806     1.6401689927     1.1357557482
    5      C      -2.0578654756     0.7883759110     1.4419314020
    6      C      -0.9467393582     0.6650167905     0.6052578790
    7      C      -0.9289673285     1.4514025959    -0.5500662498
    8      C      -1.9609476375     2.3177943858    -0.8466046370
    9      S       0.4055544851     1.3010308590    -1.7098377826
   10      C       1.7014519145     0.8919918156    -0.5704584638
   11      C       2.9940548720     1.2564009004    -0.8869395990
   12      C       4.0667863799     0.9119546911    -0.0628304655
   13      C       5.4130863767     1.2917755088    -0.4621189744
   14      C       6.5432531172     0.9942496787     0.1693249991
   15      C       3.7763426920     0.2211258760     1.1132155295
   16      C       2.4812385782    -0.1225536906     1.4409275046
   17      C       1.4109738120     0.1796782258     0.5964233174
   18      N       0.1076917632    -0.1895372057     0.9127938071
   19      C      -0.1451402781    -1.3991263649     1.6660477057
   20      C      -1.1702360383    -2.2880965598     0.9529725814
   21      C      -0.6732078772    -2.7066889745    -0.4293456456
   22      C      -1.7062691854    -3.5030129469    -1.2259761364
   23      C      -2.0966556122    -4.8492525168    -0.6132101264
   24      C      -0.9279354450    -5.8214495425    -0.5013427097
   25      H      -5.9928028786     4.2850890881    -0.0635307874
   26      H      -5.4926602275     3.0948392382     1.2255600951
   27      H      -3.9756395465     3.8729614804    -1.3156531420
   28      H      -3.9386698260     1.6934056931     1.8101802577
   29      H      -2.1080918681     0.2107351380     2.3512703074
   30      H      -1.9029112712     2.8989471880    -1.7552505410
   31      H       3.1682453551     1.7960709871    -1.8062473481
   32      H       5.4613617136     1.8714467495    -1.3759758033
   33      H       6.5701604647     0.4170530610     1.0775331559
   34      H       7.4966730259     1.3219622852    -0.2076722941
   35      H       4.5698118186    -0.0430098294     1.7942050355
   36      H       2.2962197233    -0.6276336866     2.3766898174
   37      H      -0.4780181513    -1.1773356569     2.6880299772
   38      H       0.7936115021    -1.9511454994     1.7293531741
   39      H      -2.1179504524    -1.7568375459     0.8488445212
   40      H      -1.3402121375    -3.1672324331     1.5759328344
   41      H       0.2454540249    -3.2873288376    -0.3268093498
   42      H      -0.4278077244    -1.8089288980    -1.0013168376
   43      H      -1.3057213227    -3.6795380852    -2.2271164797
   44      H      -2.6076721030    -2.8945435932    -1.3355218312
   45      H      -2.8669757624    -5.2970078600    -1.2458026238
   46      H      -2.5383390070    -4.6944773773     0.3727797438
   47      H      -0.4436010594    -5.9459964913    -1.4675018187
   48      H      -1.2781151240    -6.7951152250    -0.1657284294
   49      H      -0.1879027126    -5.4664575208     0.2112889000
 ----------------------------------------------------------------

    9   -1306.3066191512      2.92e-06  Convergence criterion met
 Total energy in the final basis set =    -1306.3066191512

                    Orbital Energies (a.u.)
 --------------------------------------------------------------

 Alpha MOs
 -- Occupied --
-88.8873 -14.3667 -10.2348 -10.2347 -10.2256 -10.2179 -10.2171 -10.1928
-10.1918 -10.1914 -10.1913 -10.1907 -10.1905 -10.1889 -10.1884 -10.1880
-10.1877 -10.1821 -10.1766 -10.1759 -10.1735 -10.1713 -10.1711 -10.1678
 -7.9482  -5.9131  -5.9096  -5.9033  -0.9796  -0.8708  -0.8670  -0.8184
 -0.8056  -0.7979  -0.7761  -0.7661  -0.7580  -0.7335  -0.7260  -0.7115
 -0.6784  -0.6567  -0.6458  -0.6192  -0.6072  -0.6051  -0.5892  -0.5639
 -0.5563  -0.5461  -0.5339  -0.5115  -0.4934  -0.4818  -0.4801  -0.4693
 -0.4621  -0.4564  -0.4499  -0.4434  -0.4359  -0.4271  -0.4215  -0.4161
 -0.4122  -0.4061  -0.4021  -0.3907  -0.3892  -0.3836  -0.3822  -0.3788
 -0.3615  -0.3558  -0.3504  -0.3462  -0.3458  -0.3393  -0.3383  -0.3226
 -0.3171  -0.3131  -0.3082  -0.3016  -0.2984  -0.2619  -0.2594  -0.2241
 -0.2198  -0.1774

          Ground-State Mulliken Net Atomic Charges

     Atom                 Charge (a.u.)
  ----------------------------------------
      1 C                    -0.357236
      2 C                    -0.113582
      3 C                     0.199897
      4 C                    -0.203413
      5 C                    -0.161512
      6 C                     0.316239
      7 C                    -0.113422
      8 C                    -0.263308
      9 S                     0.159938
     10 C                    -0.110326
     11 C                    -0.262255
     12 C                     0.197780
     13 C                    -0.113235
     14 C                    -0.357353
     15 C                    -0.201009
     16 C                    -0.166105
     17 C                     0.315697
     18 N                    -0.579011
     19 C                    -0.161605
     20 C                    -0.279576
     21 C                    -0.269936
     22 C                    -0.252916
     23 C                    -0.253701
     24 C                    -0.443183
     25 H                     0.143223
     26 H                     0.139704
     27 H                     0.127297
     28 H                     0.128360
     29 H                     0.133171
     30 H                     0.141991
     31 H                     0.141445
     32 H                     0.127001
     33 H                     0.139339
     34 H                     0.142745
     35 H                     0.127927
     36 H                     0.135976
     37 H                     0.142789
     38 H                     0.159947
     39 H                     0.152288
     40 H                     0.138497
     41 H                     0.130782
     42 H                     0.168182
     43 H                     0.129848
     44 H                     0.130572
     45 H                     0.131680
     46 H                     0.131774
     47 H                     0.143957
     48 H                     0.142036
     49 H                     0.142603
  ----------------------------------------
  Sum of atomic charges =     0.000000

                    Cartesian Multipole Moments
 -----------------------------------------------------------------
    Charge (ESU x 10^10)
                 0.0000
    Dipole Moment (Debye)
         X      -0.3812      Y      -1.2721      Z       1.6650
       Tot       2.1297
    Quadrupole Moments (Debye-Ang)
        XX    -144.3295     XY      -1.7310     YY    -151.1820
        XZ      -1.1086     YZ      -6.6012     ZZ    -145.1043

 Total job time:  143.01s(wall), 142.63s(cpu)
        *  Thank you very much for using Q-Chem.  Have a nice day.  *
