 Q-Chem 5.4, Q-Chem, Inc., Pleasanton, CA (2021)
 Q-Chem 5.4.2 for Intel X86 EM64T Linux

User input:
--------------------------------------------------------------
$molecule
0 1
C           -0.04200987370000        4.86378409130000        0.21412643190000
C           -0.94251536680000        3.88881120460000        0.21788851750000
C           -0.67087186350000        2.45911819190000        0.11069903560000
C           -1.74142926770000        1.56693060540000        0.11325731100000
C           -1.55723289810000        0.18742904030000        0.01415858370000
C           -2.74100234440000       -0.65979727490000        0.02881863330000
C           -2.80870175960000       -1.98157014040000       -0.02740939270000
F           -1.81105765040000       -2.85099556910000       -0.10992803820000
F           -3.96040210140000       -2.64927087580000       -0.00488996330000
C           -0.26039242450000       -0.31189178280000       -0.09391151920000
C            0.81690339370000        0.56655627760000       -0.09802393280000
C            2.21767362740000        0.07770035130000       -0.20821891670000
O            3.18487103770000        0.79881744030000       -0.16012112950000
O            2.28213724330000       -1.24611203480000       -0.38019320830000
C            3.58285766860000       -1.82505271820000       -0.47892379530000
C            4.17711611720000       -2.09091006540000        0.89680422710000
C            0.61655879100000        1.93721344190000        0.00535970050000
H           -0.33705145280000        5.89557930750000        0.29778689880000
H            1.01494819380000        4.68092386010000        0.12828910550000
H           -1.99215717350000        4.14155042200000        0.30600462740000
H           -2.74681567660000        1.95615408440000        0.19552389060000
H           -3.69438734220000       -0.15567339050000        0.09632041170000
H           -0.07166518720000       -1.36842331410000       -0.17477358900000
H            4.23021631660000       -1.14850306910000       -1.04679233320000
H            3.43722894950000       -2.75527189880000       -1.03200489540000
H            4.32457590480000       -1.15191785240000        1.42476831750000
H            5.13637373410000       -2.58891998350000        0.78925109070000
H            3.51035619090000       -2.72314326160000        1.47832144830000
H            1.48452454950000        2.57689795590000        0.00076772780000
$end

$rem
BASIS = 6-31G*
GUI = 2
METHOD = B3LYP
PRINT_ORBITALS false
MOLDEN_FORMAT false
$end
--------------------------------------------------------------

             Standard Nuclear Orientation (Angstroms)
    I     Atom           X                Y                Z
 ----------------------------------------------------------------
    1      C      -0.0221622132    -4.8174637075    -0.0953145425
    2      C      -0.9425825790    -3.8617078971    -0.1245311022
    3      C      -0.7009723461    -2.4246353618    -0.0487095213
    4      C      -1.7897026264    -1.5551253480    -0.0754882937
    5      C      -1.6344495593    -0.1702166290    -0.0069481341
    6      C      -2.8353872200     0.6517325227    -0.0452335791
    7      C      -2.9306007440     1.9727490289    -0.0191935143
    8      F      -1.9514786888     2.8643162883     0.0473759572
    9      F      -4.0957364248     2.6157446737    -0.0611520678
   10      C      -0.3486638913     0.3582007026     0.0946687207
   11      C       0.7465130467    -0.4974014453     0.1227155689
   12      C       2.1364124785     0.0227591018     0.2270844993
   13      O       3.1184877422    -0.6790466051     0.1989596014
   14      O       2.1728010689     1.3511653112     0.3692912554
   15      C       3.4608613647     1.9590349584     0.4597834375
   16      C       4.0553159595     2.2060650596    -0.9193650999
   17      C       0.5749508375    -1.8739014301     0.0496307036
   18      H      -0.2954804372    -5.8567798257    -0.1567077835
   19      H       1.0304224848    -4.6108344526    -0.0096636713
   20      H      -1.9864001750    -4.1380830025    -0.2108509185
   21      H      -2.7864813240    -1.9668709605    -0.1527043324
   22      H      -3.7778660798     0.1265518240    -0.1048923376
   23      H      -0.1821353050     1.4199736835     0.1523045431
   24      H       4.1196440055     1.3090345720     1.0452509883
   25      H       3.2937194634     2.8982707754     0.9911155522
   26      H       4.2243634535     1.2586647519    -1.4253813521
   27      H       5.0036230098     2.7261597050    -0.8195050506
   28      H       3.3781090916     2.8110596452    -1.5175475986
   29      H       1.4559123020    -2.4951823553     0.0719652442
 ----------------------------------------------------------------

    9    -852.7133305145      6.97e-06  Convergence criterion met
 Total energy in the final basis set =     -852.7133305145

                    Orbital Energies (a.u.)
 --------------------------------------------------------------

 Alpha MOs
 -- Occupied --
-24.7491 -24.7383 -19.1915 -19.1321 -10.3618 -10.3135 -10.2426 -10.2139
-10.2077 -10.2043 -10.2040 -10.2001 -10.1962 -10.1954 -10.1946 -10.1847
-10.1800  -1.2905  -1.2291  -1.1089  -1.0171  -0.8807  -0.8210  -0.8027
 -0.7732  -0.7533  -0.7317  -0.6746  -0.6541  -0.6328  -0.6198  -0.5867
 -0.5698  -0.5548  -0.5304  -0.5237  -0.5153  -0.4980  -0.4844  -0.4776
 -0.4643  -0.4523  -0.4455  -0.4452  -0.4354  -0.4350  -0.4157  -0.4146
 -0.4091  -0.3947  -0.3811  -0.3795  -0.3759  -0.3578  -0.3517  -0.3393
 -0.3246  -0.2993  -0.2897  -0.2738  -0.2410  -0.2237

          Ground-State Mulliken Net Atomic Charges

     Atom                 Charge (a.u.)
  ----------------------------------------
      1 C                    -0.350920
      2 C                    -0.111257
      3 C                     0.178994
      4 C                    -0.263757
      5 C                     0.198575
      6 C                    -0.298705
      7 C                     0.548379
      8 F                    -0.230867
      9 F                    -0.247148
     10 C                    -0.234427
     11 C                     0.046969
     12 C                     0.605901
     13 O                    -0.493033
     14 O                    -0.466701
     15 C                    -0.046471
     16 C                    -0.464334
     17 C                    -0.223553
     18 H                     0.147420
     19 H                     0.153577
     20 H                     0.127391
     21 H                     0.130901
     22 H                     0.160671
     23 H                     0.162285
     24 H                     0.169245
     25 H                     0.152472
     26 H                     0.178409
     27 H                     0.152109
     28 H                     0.157670
     29 H                     0.160206
  ----------------------------------------
  Sum of atomic charges =     0.000000

                    Cartesian Multipole Moments
 -----------------------------------------------------------------
    Charge (ESU x 10^10)
                 0.0000
    Dipole Moment (Debye)
         X      -0.9547      Y       0.3064      Z      -0.0982
       Tot       1.0074
    Quadrupole Moments (Debye-Ang)
        XX     -92.4738     XY      11.5633     YY     -89.6765
        XZ       0.6077     YZ       0.8033     ZZ     -97.8734

 Total job time:  88.08s(wall), 81.28s(cpu)
        *  Thank you very much for using Q-Chem.  Have a nice day.  *
