 Q-Chem 5.2, Q-Chem, Inc., Pleasanton, CA (2019)
 Q-Chem 5.2.1 for Intel X86 EM64T Linux

User input:
--------------------------------------------------------------
$molecule
0 1
C        -4.22449709000000   -1.39825413060000   -0.15797365650000
C        -3.39172059920000   -0.40167965270000    0.11469893610000
C        -1.93835261700000   -0.42689425010000   -0.01063577490000
C        -1.21110661400000   -1.53051325040000   -0.46647961680000
C         0.16714445530000   -1.44619014390000   -0.49358679140000
C         0.80022446500000   -0.26994403550000   -0.10296748690000
C         2.29069181630000   -0.24329394360000   -0.00689275020000
N         2.91686075220000   -0.54245304670000   -1.17490114490000
O         2.89538734090000   -0.02552127440000    1.01812938730000
C        -0.01153191500000    0.80848469570000    0.29021195860000
C         0.51916519950000    2.12311057950000    0.64653332110000
C         1.59204008470000    2.68589431660000    0.11076790460000
N        -1.33129183480000    0.70102317680000    0.34546587090000
H        -5.28796086750000   -1.28648335970000   -0.03400207190000
H        -3.89164609850000   -2.35977899420000   -0.51127419140000
H        -3.77065367230000    0.54616404470000    0.47156040560000
H        -1.70865859260000   -2.43671802960000   -0.77095839160000
H         0.75915255580000   -2.30061593380000   -0.79374684970000
H         2.41053806230000   -0.71955178500000   -2.02368335060000
H         3.92258347860000   -0.58551736670000   -1.18928503660000
H        -0.08672491700000    2.66101085700000    1.36206417550000
H         2.18690769500000    2.19728992730000   -0.64274293760000
H         1.91626171010000    3.66879305360000    0.40641964510000
$end

$rem
BASIS = 6-31G*
GUI = 2
METHOD = B3LYP
PRINT_ORBITALS false
MOLDEN_FORMAT false
--------------------------------------------------------------

             Standard Nuclear Orientation (Angstroms)
    I     Atom           X                Y                Z
 ----------------------------------------------------------------
    1      C       4.4235512460    -0.2903203036     0.0100623994
    2      C       3.3612645460     0.5047487752    -0.0109100426
    3      C       1.9638228762     0.0856092228    -0.0008168555
    4      C       1.5469997168    -1.2477950510     0.0534671339
    5      C       0.1932932969    -1.5176599731     0.0079363986
    6      C      -0.7229304952    -0.4721272199    -0.0578197565
    7      C      -2.1714755660    -0.7849650300    -0.2456579583
    8      N      -2.6898875480    -1.5714742418     0.7333617514
    9      O      -2.8208867857    -0.4199090255    -1.1989423737
   10      C      -0.2174088099     0.8397342569    -0.0540360316
   11      C      -1.0697279397     2.0272374927    -0.0387480970
   12      C      -2.2459961103     2.1169619189     0.5638905624
   13      N       1.0854167013     1.0825364060    -0.0462886126
   14      H       5.4219458155     0.1120714574    -0.0002341682
   15      H       4.3507557585    -1.3646268684     0.0366581817
   16      H       3.4820746548     1.5789005687    -0.0417466979
   17      H       2.2623966974    -2.0519628717     0.1081816081
   18      H      -0.1578918098    -2.5409769046    -0.0022890925
   19      H      -2.1475496490    -1.8694149184     1.5240948408
   20      H      -3.6510072088    -1.8629449574     0.6638387057
   21      H      -0.6279124190     2.8899182562    -0.5172926523
   22      H      -2.6894193923     1.2907135087     1.0940506042
   23      H      -2.8133588012     3.0316152509     0.5525591715
 ----------------------------------------------------------------

    9    -571.7756739915      5.55e-06  Convergence criterion met
 Total energy in the final basis set =     -571.7756739915

                    Orbital Energies (a.u.)
 --------------------------------------------------------------

 Alpha MOs
 -- Occupied --
-19.1107 -14.3624 -14.3261 -10.2914 -10.2332 -10.2320 -10.2140 -10.2063
-10.2011 -10.1919 -10.1894 -10.1849 -10.1814  -1.0392  -0.9561  -0.9126
 -0.8200  -0.8151  -0.7748  -0.7360  -0.6760  -0.6370  -0.6057  -0.5978
 -0.5592  -0.5431  -0.5145  -0.5068  -0.4845  -0.4588  -0.4387  -0.4361
 -0.4223  -0.4138  -0.4117  -0.3994  -0.3887  -0.3630  -0.3504  -0.3198
 -0.3023  -0.2734  -0.2664  -0.2569  -0.2470  -0.2281

          Ground-State Mulliken Net Atomic Charges

     Atom                 Charge (a.u.)
  ----------------------------------------
      1 C                    -0.345448
      2 C                    -0.089839
      3 C                     0.311215
      4 C                    -0.175744
      5 C                    -0.133927
      6 C                     0.016719
      7 C                     0.487272
      8 N                    -0.738330
      9 O                    -0.475127
     10 C                     0.259457
     11 C                    -0.076817
     12 C                    -0.327337
     13 N                    -0.563978
     14 H                     0.152395
     15 H                     0.143736
     16 H                     0.148540
     17 H                     0.136565
     18 H                     0.144827
     19 H                     0.337496
     20 H                     0.342479
     21 H                     0.147972
     22 H                     0.148064
     23 H                     0.149810
  ----------------------------------------
  Sum of atomic charges =     0.000000

                    Cartesian Multipole Moments
 -----------------------------------------------------------------
    Charge (ESU x 10^10)
                 0.0000
    Dipole Moment (Debye)
         X       0.7059      Y      -2.8171      Z       3.0549
       Tot       4.2151
    Quadrupole Moments (Debye-Ang)
        XX     -68.9039     XY       0.8681     YY     -66.3580
        XZ      -9.6558     YZ      -3.9866     ZZ     -78.3122

 Total job time:  33.40s(wall), 32.23s(cpu)
        *  Thank you very much for using Q-Chem.  Have a nice day.  *
