 Q-Chem 5.2, Q-Chem, Inc., Pleasanton, CA (2019)
 Q-Chem 5.2.1 for Intel X86 EM64T Linux

User input:
--------------------------------------------------------------
$molecule
0 1
C        -2.66673562630000   -3.23726129240000   -0.01849302730000
C        -2.96175412670000   -1.94378775300000   -0.09122550180000
C        -1.95635135350000   -0.91433272960000   -0.03613767830000
N        -0.67128110040000   -1.06631046620000    0.08119220870000
C        -0.14135294190000    0.19035334170000    0.08827103880000
C         1.31239602290000    0.37128382480000    0.20915154740000
O         1.88836459770000    1.43603948860000    0.21131934960000
O         1.92529118220000   -0.80327832840000    0.32961642600000
C         3.34641895780000   -0.78252711120000    0.43931139570000
C         4.00876822830000   -0.68004257910000   -0.92793726850000
C        -1.18231732120000    1.10741014660000   -0.03202720780000
C        -1.32750931110000    2.53744815810000   -0.08836020120000
C        -0.34413532320000    3.43103990560000   -0.03162585030000
O        -2.32426176420000    0.38501593880000   -0.10922030540000
H        -3.42979031550000   -3.99416449720000   -0.06054082180000
H        -1.64464063300000   -3.55662607730000    0.08577928110000
H        -3.97602694440000   -1.58531268180000   -0.19536366540000
H         3.60453708540000   -1.72228593000000    0.93160033800000
H         3.64488061710000    0.06415324950000    1.06726199900000
H         3.67123931420000   -1.49102071400000   -1.56859666610000
H         5.08776824320000   -0.73826340100000   -0.81641356260000
H         3.75323539120000    0.26856772570000   -1.39375643940000
H        -2.35975773110000    2.85055747070000   -0.18645259810000
H         0.68454301010000    3.13348873900000    0.06526287640000
H        -0.55802969220000    4.48475225770000   -0.08194133670000
$end

$rem
BASIS = 6-31G*
GUI = 2
METHOD = B3LYP
PRINT_ORBITALS false
MOLDEN_FORMAT false
--------------------------------------------------------------

             Standard Nuclear Orientation (Angstroms)
    I     Atom           X                Y                Z
 ----------------------------------------------------------------
    1      C       3.2896499064    -2.6306011523     0.0142989948
    2      C       3.3237859875    -1.3050642645     0.0990717071
    3      C       2.1360499829    -0.4929681701     0.0405040834
    4      N       0.9070934539    -0.8936343729    -0.0914107903
    5      C       0.1403940714     0.2342991781    -0.0953920762
    6      C      -1.3193961960     0.1268898819    -0.2303350569
    7      O      -2.0935262667     1.0575729526    -0.2312168504
    8      O      -1.6881483568    -1.1441479738    -0.3653651585
    9      C      -3.0845460505    -1.4022869066    -0.4898863474
   10      C      -3.7663573012    -1.4441498807     0.8709808228
   11      C       0.9794913036     1.3370479413     0.0422040373
   12      C       0.8400168507     2.7671602269     0.1099429631
   13      C      -0.2993798562     3.4503975446     0.0490224417
   14      O       2.2404917428     0.8526594776     0.1264357726
   15      H       4.1862838627    -3.2230184873     0.0591564007
   16      H       2.3513304679    -3.1437828332    -0.1029441253
   17      H       4.2467438292    -0.7550744679     0.2163684622
   18      H      -3.1483217730    -2.3700613612    -0.9913494770
   19      H      -3.5380869680    -0.6253064451    -1.1150830797
   20      H      -3.2816515431    -2.1785567598     1.5095437648
   21      H      -4.8117747666    -1.7124226234     0.7476913592
   22      H      -3.7066199502    -0.4679713157     1.3460101896
   23      H       1.7895769407     3.2762600952     0.2210704578
   24      H      -1.2485111761     2.9572428144    -0.0607563596
   25      H      -0.2974122466     4.5251099520     0.1088684116
 ----------------------------------------------------------------

    9    -668.0747502920      7.79e-06  Convergence criterion met
 Total energy in the final basis set =     -668.0747502920

                    Orbital Energies (a.u.)
 --------------------------------------------------------------

 Alpha MOs
 -- Occupied --
-19.2380 -19.1865 -19.1341 -14.3309 -10.3175 -10.2802 -10.2680 -10.2390
-10.2279 -10.2080 -10.2035 -10.1962 -10.1860 -10.1768  -1.1529  -1.1086
 -1.0170  -0.9344  -0.8334  -0.7934  -0.7752  -0.7364  -0.6911  -0.6468
 -0.6375  -0.5911  -0.5669  -0.5496  -0.5363  -0.4959  -0.4938  -0.4793
 -0.4759  -0.4591  -0.4482  -0.4408  -0.4250  -0.4137  -0.4056  -0.3841
 -0.3794  -0.3787  -0.3648  -0.3446  -0.3379  -0.3172  -0.2970  -0.2905
 -0.2880  -0.2732  -0.2161

          Ground-State Mulliken Net Atomic Charges

     Atom                 Charge (a.u.)
  ----------------------------------------
      1 C                    -0.327857
      2 C                    -0.115007
      3 C                     0.507960
      4 N                    -0.498533
      5 C                     0.129281
      6 C                     0.593422
      7 O                    -0.505959
      8 O                    -0.436211
      9 C                    -0.042646
     10 C                    -0.466007
     11 C                     0.326650
     12 C                    -0.137027
     13 C                    -0.353437
     14 O                    -0.475715
     15 H                     0.154017
     16 H                     0.181527
     17 H                     0.150011
     18 H                     0.154403
     19 H                     0.164744
     20 H                     0.160637
     21 H                     0.150130
     22 H                     0.176199
     23 H                     0.146984
     24 H                     0.215646
     25 H                     0.146789
  ----------------------------------------
  Sum of atomic charges =     0.000000

                    Cartesian Multipole Moments
 -----------------------------------------------------------------
    Charge (ESU x 10^10)
                 0.0000
    Dipole Moment (Debye)
         X       0.9971      Y      -0.4218      Z       0.1971
       Tot       1.1004
    Quadrupole Moments (Debye-Ang)
        XX     -69.0382     XY       3.1965     YY     -74.2672
        XZ       0.8459     YZ       0.5914     ZZ     -81.7207

 Total job time:  70.00s(wall), 34.15s(cpu)
        *  Thank you very much for using Q-Chem.  Have a nice day.  *
