 Q-Chem 5.2, Q-Chem, Inc., Pleasanton, CA (2019)
 Q-Chem 5.2.1 for Intel X86 EM64T Linux

User input:
--------------------------------------------------------------
$molecule
0 1
C         4.13436485930000   -2.03144575240000    0.54339062890000
C         2.99432594380000   -2.07442235920000   -0.13502026280000
C         1.94146315380000   -1.05609426830000   -0.13235661020000
C         0.62549002420000   -1.49916967580000   -0.12480238900000
C        -0.42230237020000   -0.59748775230000   -0.08407028030000
O        -1.71432931110000   -1.18027586490000   -0.06263477810000
C        -2.77806900890000   -0.42135766520000    0.01369208900000
F        -2.83030930930000    0.37023783450000    1.10358526070000
F        -2.95270021330000    0.41129109090000   -1.03319819720000
F        -3.86124132710000   -1.19439612790000    0.05923559450000
C        -0.18212616020000    0.76027370050000   -0.08092721350000
C         1.12675530570000    1.23520375340000   -0.12806431630000
C         1.35079783470000    2.68058013750000   -0.17559962480000
C         0.60983740720000    3.58200862080000    0.45391710800000
C         2.20641956800000    0.33005761970000   -0.15221780040000
N         3.50143512720000    0.78752529770000   -0.14283635180000
H         4.83906087410000   -2.84492133480000    0.50065705010000
H         4.38516512300000   -1.21643991010000    1.20089019840000
H         2.76059297980000   -2.95645051720000   -0.71931864710000
H         0.40569017990000   -2.55435278060000   -0.12924124770000
H        -0.98408143710000    1.47962152310000   -0.07700720690000
H         2.17871551410000    3.02069687230000   -0.78791057410000
H        -0.20737960720000    3.30153809950000    1.09623480170000
H         0.80588865310000    4.63642971770000    0.36343188320000
H         3.64368009870000    1.74703717800000   -0.41165380100000
H         4.19754024460000    0.13844888200000   -0.47562170220000
$end

$rem
BASIS = 6-31G*
GUI = 2
METHOD = B3LYP
PRINT_ORBITALS false
MOLDEN_FORMAT false
--------------------------------------------------------------

             Standard Nuclear Orientation (Angstroms)
    I     Atom           X                Y                Z
 ----------------------------------------------------------------
    1      C       4.0352460365     1.9823430136    -0.5555200241
    2      C       2.8945427850     2.0513960127     0.1196131707
    3      C       1.8254811545     1.0501047786     0.1261204809
    4      C       0.5168083082     1.5140916228     0.1103169873
    5      C      -0.5452271848     0.6289038495     0.0774305873
    6      O      -1.8276839985     1.2320325289     0.0461992218
    7      C      -2.9032946223     0.4894259454    -0.0239578676
    8      F      -2.9658164854    -0.3137395775    -1.1048074267
    9      F      -3.0935863208    -0.3281970333     1.0320066271
   10      F      -3.9738175028     1.2791437527    -0.0809797399
   11      C      -0.3268659531    -0.7324775051     0.0904625871
   12      C       0.9741171972    -1.2277429655     0.1461951601
   13      C       1.1748284245    -2.6758796099     0.2108698421
   14      C       0.4208937251    -3.5725159739    -0.4100268338
   15      C       2.0681127176    -0.3397933866     0.1625408048
   16      N       3.3556373033    -0.8180290978     0.1615248163
   17      H       4.7528101393     2.7848618595    -0.5204427425
   18      H       4.2743908648     1.1558997439    -1.2030092149
   19      H       2.6737008922     2.9437314295     0.6931772336
   20      H       0.3139618807     2.5726420283     0.1021056832
   21      H      -1.1402519464    -1.4388812836     0.0928813285
   22      H       1.9958218063    -3.0221381716     0.8290337778
   23      H      -0.3902911360    -3.2864092890    -1.0574845293
   24      H       0.5997965030    -4.6288299969    -0.3069637587
   25      H       3.4818687764    -1.7765349834     0.4416883112
   26      H       4.0613303350    -0.1763968492     0.4885019100
 ----------------------------------------------------------------

    9    -854.6454429708      3.14e-06  Convergence criterion met
 Total energy in the final basis set =     -854.6454429708

                    Orbital Energies (a.u.)
 --------------------------------------------------------------

 Alpha MOs
 -- Occupied --
-24.7220 -24.7201 -24.7193 -19.2140 -14.3481 -10.4735 -10.2557 -10.2380
-10.2021 -10.2016 -10.2005 -10.1999 -10.1964 -10.1960 -10.1882 -10.1861
 -1.3179  -1.2179  -1.2125  -1.1116  -0.9383  -0.8618  -0.8165  -0.7896
 -0.7473  -0.7341  -0.6889  -0.6503  -0.6369  -0.6160  -0.5939  -0.5897
 -0.5633  -0.5606  -0.5327  -0.5185  -0.4793  -0.4746  -0.4679  -0.4623
 -0.4580  -0.4551  -0.4356  -0.4341  -0.4293  -0.4126  -0.4099  -0.3974
 -0.3961  -0.3939  -0.3804  -0.3757  -0.3669  -0.3442  -0.3127  -0.3089
 -0.2790  -0.2344  -0.2001

          Ground-State Mulliken Net Atomic Charges

     Atom                 Charge (a.u.)
  ----------------------------------------
      1 C                    -0.361230
      2 C                    -0.145680
      3 C                     0.135044
      4 C                    -0.251359
      5 C                     0.342205
      6 O                    -0.525418
      7 C                     0.972626
      8 F                    -0.280355
      9 F                    -0.280246
     10 F                    -0.256862
     11 C                    -0.241276
     12 C                     0.131938
     13 C                    -0.140001
     14 C                    -0.335743
     15 C                     0.202556
     16 N                    -0.813842
     17 H                     0.147251
     18 H                     0.169975
     19 H                     0.142378
     20 H                     0.147193
     21 H                     0.162761
     22 H                     0.123722
     23 H                     0.153794
     24 H                     0.145144
     25 H                     0.326895
     26 H                     0.328530
  ----------------------------------------
  Sum of atomic charges =     0.000000

                    Cartesian Multipole Moments
 -----------------------------------------------------------------
    Charge (ESU x 10^10)
                 0.0000
    Dipole Moment (Debye)
         X       3.9709      Y      -0.7762      Z       0.9425
       Tot       4.1544
    Quadrupole Moments (Debye-Ang)
        XX     -85.2345     XY       0.7366     YY     -81.6580
        XZ       4.1995     YZ      -0.1710     ZZ     -92.4510

 Total job time:  45.14s(wall), 44.82s(cpu)
        *  Thank you very much for using Q-Chem.  Have a nice day.  *
