 Q-Chem 5.4, Q-Chem, Inc., Pleasanton, CA (2021)
 Q-Chem 5.4.2 for Intel X86 EM64T Linux

User input:
--------------------------------------------------------------
$molecule
0 1
C            1.95502940880000        2.14400989720000       -0.98371818620000
C            1.09768110630000        2.14087266560000        0.02528081260000
C           -0.10182894380000        1.29959830950000        0.09698333850000
C           -1.30413320190000        1.90566166610000        0.45715866390000
C           -2.49944140130000        1.21489683260000        0.44553143830000
C           -2.50298538290000       -0.11650543180000        0.06913037660000
F           -3.65770295320000       -0.80060316380000        0.03807053400000
C           -1.31372167880000       -0.74662559210000       -0.26354379150000
F           -1.32255993190000       -2.04973132470000       -0.59709840940000
C           -0.09774531800000       -0.06300750830000       -0.23746819840000
C            1.10929086680000       -0.83970869490000       -0.53113151520000
C            2.22811859530000       -0.79782957200000        0.17093921890000
F            2.47314953670000       -0.03312056610000        1.22558780800000
F            3.29547206690000       -1.54089040320000       -0.09262432600000
H            2.79525931700000        2.81569191140000       -1.00546265780000
H            1.84497293570000        1.48555155660000       -1.82956087960000
H            1.21468527990000        2.84342468400000        0.83948509890000
H           -1.29876313270000        2.94947280350000        0.73108253280000
H           -3.42894850080000        1.68869586360000        0.71648762930000
H            1.05059369590000       -1.57192413710000       -1.32279757500000
$end

$rem
BASIS = 6-31G*
GUI = 2
METHOD = B3LYP
PRINT_ORBITALS false
MOLDEN_FORMAT false
$end
--------------------------------------------------------------

             Standard Nuclear Orientation (Angstroms)
    I     Atom           X                Y                Z
 ----------------------------------------------------------------
    1      C       1.9788645050     1.9595131202    -1.1322150161
    2      C       1.1189682677     2.0510875884    -0.1295547988
    3      C      -0.0921108714     1.2347559415     0.0068201106
    4      C      -1.2869370193     1.8845270297     0.3113896351
    5      C      -2.4915433362     1.2112511139     0.3523298559
    6      C      -2.5123233998    -0.1464869128     0.0869283701
    7      F      -3.6762020244    -0.8152658764     0.1081022427
    8      C      -1.3309359674    -0.8177880761    -0.1882990976
    9      F      -1.3567328401    -2.1437244063    -0.4133517977
   10      C      -0.1057982520    -0.1507197561    -0.2141750666
   11      C       1.0912559449    -0.9651111213    -0.4383785061
   12      C       2.2087472237    -0.8804934795     0.2619683788
   13      F       2.4615038688    -0.0347792314     1.2508997017
   14      F       3.2665149216    -1.6570065031     0.0644750983
   15      H       2.8282515931     2.6157838693    -1.2061482790
   16      H       1.8619862758     1.2350855710    -1.9213118930
   17      H       1.2434774881     2.8167526134     0.6244030638
   18      H      -1.2679999144     2.9472046408     0.4983722415
   19      H      -3.4151780898     1.7182042518     0.5798899255
   20      H       1.0245847434    -1.7592594789    -1.1672154556
 ----------------------------------------------------------------

    9    -783.9640707628      3.52e-06  Convergence criterion met
 Total energy in the final basis set =     -783.9640707628

                    Orbital Energies (a.u.)
 --------------------------------------------------------------

 Alpha MOs
 -- Occupied --
-24.7417 -24.7384 -24.7200 -24.7162 -10.3600 -10.2833 -10.2825 -10.2222
-10.2114 -10.2061 -10.2059 -10.2030 -10.1977 -10.1856  -1.2871  -1.2372
 -1.2268  -1.2237  -0.8887  -0.8190  -0.7996  -0.7555  -0.7374  -0.6638
 -0.6343  -0.6240  -0.5865  -0.5782  -0.5565  -0.5389  -0.5239  -0.5179
 -0.5053  -0.4868  -0.4745  -0.4603  -0.4535  -0.4492  -0.4425  -0.4364
 -0.4293  -0.4158  -0.4027  -0.3993  -0.3681  -0.3662  -0.3547  -0.2943
 -0.2905  -0.2436  -0.2272

          Ground-State Mulliken Net Atomic Charges

     Atom                 Charge (a.u.)
  ----------------------------------------
      1 C                    -0.327667
      2 C                    -0.144787
      3 C                     0.111542
      4 C                    -0.181822
      5 C                    -0.199598
      6 C                     0.324719
      7 F                    -0.282535
      8 C                     0.256693
      9 F                    -0.275568
     10 C                     0.025178
     11 C                    -0.336490
     12 C                     0.588119
     13 F                    -0.230900
     14 F                    -0.241741
     15 H                     0.147519
     16 H                     0.152859
     17 H                     0.141778
     18 H                     0.140284
     19 H                     0.155151
     20 H                     0.177264
  ----------------------------------------
  Sum of atomic charges =     0.000000

                    Cartesian Multipole Moments
 -----------------------------------------------------------------
    Charge (ESU x 10^10)
                 0.0000
    Dipole Moment (Debye)
         X       0.3597      Y       1.9047      Z      -0.2661
       Tot       1.9565
    Quadrupole Moments (Debye-Ang)
        XX     -78.4819     XY      -2.7237     YY     -73.1862
        XZ      -2.6591     YZ       2.0214     ZZ     -75.3354

 Total job time:  57.09s(wall), 52.97s(cpu)
        *  Thank you very much for using Q-Chem.  Have a nice day.  *
