 Q-Chem 5.2, Q-Chem, Inc., Pleasanton, CA (2019)
 Q-Chem 5.2.1 for Intel X86 EM64T Linux

User input:
--------------------------------------------------------------
$molecule
0 1
C         4.29821518340000   -1.77792527230000   -1.87059486200000
O         3.36707353590000   -2.48625887720000   -1.06495681760000
C         2.09881852940000   -2.06342073120000   -1.13218417800000
C         1.20342782820000   -2.87386177750000   -0.26380169840000
C         0.20141744940000   -2.26106494850000    0.50358429740000
N         0.11895168390000   -0.86747910900000    0.60499514550000
C         1.28420603280000   -0.11316532410000    0.71477099270000
C         1.37806693170000    1.14165349250000    0.11190185820000
C         2.55439140210000    1.86062639750000    0.21383294180000
C         2.68668045290000    3.20318769310000   -0.44528760480000
F         1.55042723310000    3.65082464670000   -0.99232914550000
F         3.08639634690000    4.15394197710000    0.42337670710000
F         3.60842806260000    3.19675607030000   -1.42732038900000
C         3.65423860180000    1.35751519730000    0.90007088220000
C         3.55503543660000    0.11389319690000    1.49918147330000
C         2.38425327910000   -0.61420542560000    1.41500888720000
C        -1.13320038790000   -0.24674352670000    0.55486892490000
C        -1.39527886180000    0.89050557360000    1.31972135000000
C        -2.63433065500000    1.48959115950000    1.27018260650000
C        -3.65784028320000    0.97566792630000    0.46862292230000
C        -4.93999099370000    1.65635924850000    0.47216809270000
C        -6.05622341400000    1.31718305700000   -0.15709379990000
F        -6.26758836000000    0.26619654970000   -0.94149114590000
F        -7.18168444210000    2.02533469070000   -0.07415836330000
C        -3.38762674990000   -0.16455460140000   -0.29275779080000
C        -2.14722704130000   -0.76324660070000   -0.25187652750000
C        -0.69503828070000   -3.06381887340000    1.20853907330000
C        -0.59149880630000   -4.43989814260000    1.16286081500000
C         0.42076012460000   -5.04299739390000    0.43139946780000
C         1.31376082000000   -4.25966681090000   -0.27546068470000
O         1.73601027350000   -1.15631054430000   -1.83843130130000
H         5.25691416710000   -2.27033940380000   -1.73157232930000
H         4.35202075740000   -0.73415110580000   -1.55296775340000
H         3.99527581270000   -1.80989746690000   -2.91888545770000
H         0.54632167470000    1.53218550580000   -0.45241418700000
H         4.56423522930000    1.93354516870000    0.95925330650000
H         4.39669163990000   -0.28998006970000    2.04025663220000
H         2.31625863990000   -1.58169889820000    1.89025479080000
H        -0.62336818260000    1.29660828800000    1.95642608010000
H        -2.82058634500000    2.36777444690000    1.87036922390000
H        -5.00571891040000    2.55733814520000    1.06505326800000
H        -4.14513554740000   -0.58360437990000   -0.93392688260000
H        -1.94838100070000   -1.63342108010000   -0.85875489690000
H        -1.46798641950000   -2.59321867650000    1.79770480320000
H        -1.29495147090000   -5.04532156360000    1.71415357110000
H         0.50890509120000   -6.11790848100000    0.40900136670000
H         2.09589794560000   -4.71439811420000   -0.86347213640000
$end

$rem
BASIS = 6-31G*
GUI = 2
METHOD = B3LYP
PRINT_ORBITALS false
MOLDEN_FORMAT false
--------------------------------------------------------------

             Standard Nuclear Orientation (Angstroms)
    I     Atom           X                Y                Z
 ----------------------------------------------------------------
    1      C       4.5197751969     1.1440989426     1.7067205149
    2      O       3.6387924348     1.9813871622     0.9714438783
    3      C       2.3348418726     1.7046595242     1.0935795524
    4      C       1.4981058331     2.6413527692     0.2966442395
    5      C       0.3951902045     2.1738066312    -0.4337007096
    6      N       0.1464713894     0.8031000285    -0.5695999916
    7      C       1.2093733412    -0.0756383882    -0.7617352465
    8      C       1.1863024082    -1.3526572693    -0.2000219447
    9      C       2.2646779627    -2.1978428614    -0.3839206180
   10      C       2.2722968296    -3.5682865505     0.2294611294
   11      F       1.1199882687    -3.9010301513     0.8229013924
   12      F       2.5156621364    -4.5285901891    -0.6853472879
   13      F       3.2356808278    -3.7008363868     1.1613249734
   14      C       3.3804776325    -1.8011312836    -1.1128364391
   15      C       3.3971326409    -0.5347440782    -1.6708297230
   16      C       2.3244428968     0.3194686108    -1.5046945872
   17      C      -1.1653400600     0.3286276837    -0.4709246285
   18      C      -1.5950504507    -0.7445029367    -1.2524356819
   19      C      -2.8913795167    -1.1989620265    -1.1544312895
   20      C      -3.8076097982    -0.5985883592    -0.2859495645
   21      C      -5.1587840392    -1.1273289540    -0.2409468663
   22      C      -6.1957672783    -0.6839815096     0.4555404916
   23      F      -6.2447805494     0.3571050581     1.2791079953
   24      F      -7.3985955048    -1.2552528922     0.4122644736
   25      C      -3.3696544340     0.4766796824     0.4917503096
   26      C      -2.0716085567     0.9303000280     0.4023058715
   27      C      -0.4354652939     3.0974496902    -1.0676588458
   28      C      -0.1706138445     4.4502492430    -0.9889939804
   29      C       0.9395764198     4.9082105556    -0.2953214598
   30      C       1.7691550251     4.0041830038     0.3412646246
   31      O       1.9042324629     0.8216924386     1.7922986540
   32      H       5.5211997240     1.5278168259     1.5311865143
   33      H       4.4362614944     0.1124077489     1.3575998009
   34      H       4.2744806850     1.1750254481     2.7700087215
   35      H       0.3435530028    -1.6641914498     0.3962061316
   36      H       4.2133631712    -2.4753231747    -1.2360189169
   37      H       4.2524059813    -0.2118880736    -2.2440073754
   38      H       2.3460583592     1.3039307384    -1.9484204602
   39      H      -0.9077801721    -1.2145810996    -1.9400725843
   40      H      -3.2076794431    -2.0291563950    -1.7683145936
   41      H      -5.3578091813    -1.9942170907    -0.8545346055
   42      H      -4.0409141408     0.9578101149     1.1834467838
   43      H      -1.7434206560     1.7508731293     1.0219809596
   44      H      -1.2858690646     2.7387856571    -1.6281971281
   45      H      -0.8251869203     5.1506465063    -1.4852647078
   46      H       1.1530179469     5.9645544242    -0.2475155922
   47      H       2.6267737463     4.3460778508     0.8997219206
 ----------------------------------------------------------------

    9   -1590.4668405292      6.49e-06  Convergence criterion met
 Total energy in the final basis set =    -1590.4668405292

                    Orbital Energies (a.u.)
 --------------------------------------------------------------

 Alpha MOs
 -- Occupied --
-24.7433 -24.7326 -24.7193 -24.7117 -24.7110 -19.1963 -19.1348 -14.3781
-10.4228 -10.3547 -10.3163 -10.2442 -10.2393 -10.2391 -10.2334 -10.2113
-10.2088 -10.2050 -10.2035 -10.2026 -10.2024 -10.2009 -10.1987 -10.1983
-10.1980 -10.1969 -10.1963 -10.1947 -10.1920 -10.1917 -10.1907  -1.2985
 -1.2840  -1.2232  -1.2093  -1.2026  -1.1126  -1.0208  -0.9919  -0.8784
 -0.8751  -0.8593  -0.8093  -0.7873  -0.7827  -0.7762  -0.7559  -0.7535
 -0.7319  -0.7185  -0.6932  -0.6565  -0.6494  -0.6340  -0.6256  -0.6185
 -0.6174  -0.5939  -0.5825  -0.5723  -0.5716  -0.5709  -0.5592  -0.5482
 -0.5346  -0.5231  -0.5177  -0.5068  -0.5035  -0.4941  -0.4812  -0.4787
 -0.4741  -0.4692  -0.4614  -0.4537  -0.4521  -0.4495  -0.4453  -0.4430
 -0.4417  -0.4397  -0.4310  -0.4270  -0.4227  -0.4127  -0.4107  -0.4059
 -0.4044  -0.4004  -0.3910  -0.3876  -0.3870  -0.3836  -0.3785  -0.3716
 -0.3690  -0.3644  -0.3576  -0.3549  -0.3488  -0.3320  -0.3065  -0.2966
 -0.2804  -0.2703  -0.2673  -0.2610  -0.2575  -0.2378  -0.1887

          Ground-State Mulliken Net Atomic Charges

     Atom                 Charge (a.u.)
  ----------------------------------------
      1 C                    -0.224582
      2 O                    -0.440592
      3 C                     0.546200
      4 C                     0.062364
      5 C                     0.258260
      6 N                    -0.649635
      7 C                     0.278845
      8 C                    -0.187186
      9 C                    -0.011715
     10 C                     0.775198
     11 F                    -0.263292
     12 F                    -0.271560
     13 F                    -0.265733
     14 C                    -0.168077
     15 C                    -0.136307
     16 C                    -0.170515
     17 C                     0.296054
     18 C                    -0.173461
     19 C                    -0.204582
     20 C                     0.200717
     21 C                    -0.299600
     22 C                     0.540854
     23 F                    -0.236161
     24 F                    -0.249025
     25 C                    -0.205871
     26 C                    -0.169034
     27 C                    -0.166755
     28 C                    -0.129338
     29 C                    -0.132752
     30 C                    -0.169490
     31 O                    -0.475800
     32 H                     0.163039
     33 H                     0.177698
     34 H                     0.171028
     35 H                     0.174597
     36 H                     0.147929
     37 H                     0.139557
     38 H                     0.153339
     39 H                     0.148690
     40 H                     0.133129
     41 H                     0.159365
     42 H                     0.143024
     43 H                     0.153785
     44 H                     0.153443
     45 H                     0.138961
     46 H                     0.134486
     47 H                     0.150500
  ----------------------------------------
  Sum of atomic charges =     0.000000

                    Cartesian Multipole Moments
 -----------------------------------------------------------------
    Charge (ESU x 10^10)
                 0.0000
    Dipole Moment (Debye)
         X       1.4694      Y       3.4640      Z      -2.1201
       Tot       4.3189
    Quadrupole Moments (Debye-Ang)
        XX    -164.2506     XY       7.6939     YY    -168.1654
        XZ       3.1810     YZ       3.3972     ZZ    -171.0071

 Total job time:  204.98s(wall), 204.46s(cpu)
        *  Thank you very much for using Q-Chem.  Have a nice day.  *
