 Q-Chem 5.2, Q-Chem, Inc., Pleasanton, CA (2019)
 Q-Chem 5.2.1 for Intel X86 EM64T Linux

User input:
--------------------------------------------------------------
$molecule
0 1
C        -3.64800364800000    3.18957441810000    0.02196801150000
C        -3.70108918490000    1.86433750410000   -0.01265391530000
C        -2.52384845530000    1.02752643690000   -0.00019902950000
N        -2.60073547370000   -0.33195908820000   -0.03472276180000
C        -1.35987385750000   -0.74603636090000   -0.01472021860000
C        -0.95694455190000   -2.12991553260000   -0.02655959530000
C        -1.85422319550000   -3.10910604870000   -0.08525563850000
N        -0.52250545430000    0.35881941820000    0.03269638460000
C         0.87571903160000    0.52749532530000    0.07052407010000
O         1.37285231730000    1.60790350260000    0.18619290450000
O         1.49122247570000   -0.63974820570000   -0.04144776190000
C         2.94796820300000   -0.70860817660000   -0.03533670740000
C         3.49044924450000   -0.18468856690000    1.29206339390000
C         3.24123811180000   -2.20098311790000   -0.18889747320000
C         3.51244344050000    0.07641988990000   -1.21686060730000
N        -1.28696496190000    1.46880506940000    0.04305237410000
H        -4.53912575400000    3.79316438880000    0.01146713150000
H        -2.70030152150000    3.69838907330000    0.06208254430000
H        -4.63409483010000    1.32092050470000   -0.05305595040000
H         0.10102545820000   -2.32981324460000    0.01493068690000
H        -2.90624010430000   -2.88622813160000   -0.12819163960000
H        -1.56018123780000   -4.14418668320000   -0.09163847280000
H         3.03376629890000   -0.71978353050000    2.12220462440000
H         3.27913202990000    0.87573542220000    1.39808853810000
H         4.56577401500000   -0.33393536010000    1.32740932730000
H         2.82092581490000   -2.75549659320000    0.64641031980000
H         4.31414553950000   -2.36474129560000   -0.21480566080000
H         2.80482648750000   -2.57556296610000   -1.11139909120000
H         3.29734496120000    1.13580123760000   -1.10809082870000
H         3.07385327440000   -0.27856190760000   -2.14716631590000
H         4.58905308150000   -0.06056035230000   -1.26122124700000
$end

$rem
BASIS = 6-31G*
GUI = 2
METHOD = B3LYP
PRINT_ORBITALS false
MOLDEN_FORMAT false
--------------------------------------------------------------

             Standard Nuclear Orientation (Angstroms)
    I     Atom           X                Y                Z
 ----------------------------------------------------------------
    1      C       4.5529464319    -1.8540172481    -0.0459211984
    2      C       4.1764489936    -0.5818121874    -0.0422343457
    3      C       2.7925383263    -0.1692214120    -0.0128449116
    4      N       2.4275498096     1.1430528281    -0.0079361289
    5      C       1.1195230971     1.1348995391     0.0165032481
    6      C       0.2924930134     2.3151491629     0.0419163216
    7      C       0.8265579783     3.5323202935     0.0166713475
    8      N       0.6825937300    -0.1815799017     0.0272307783
    9      C      -0.5867482633    -0.7923819592     0.0518470120
   10      O      -0.7091847781    -1.9781894270     0.1335327613
   11      O      -1.5456499119     0.1173420170    -0.0303086744
   12      C      -2.9469802164    -0.2865888380    -0.0309385287
   13      C      -3.2871802640    -0.9955795858     1.2776349365
   14      C      -3.7056227745     1.0357500839    -0.1434212318
   15      C      -3.2328894490    -1.1768552856    -1.2378277730
   16      N       1.7637252718    -0.9862184643     0.0103457549
   17      H       5.5908984991    -2.1380605593    -0.0683852276
   18      H       3.8196484899    -2.6417487944    -0.0260720460
   19      H       4.8846923943     0.2339422345    -0.0614671868
   20      H      -0.7733524500     2.1625587185     0.0827903399
   21      H       1.8941601582     3.6612896247    -0.0263418999
   22      H       0.2149257959     4.4173830943     0.0381944876
   23      H      -3.0241159569    -0.3663202536     2.1254853116
   24      H      -2.7453542863    -1.9341493346     1.3544904475
   25      H      -4.3531723370    -1.2015103662     1.3108119836
   26      H      -3.4832256049     1.6715281245     0.7099324535
   27      H      -4.7742162348     0.8461097748    -0.1710417546
   28      H      -3.4163242656     1.5575084167    -1.0521835872
   29      H      -2.6878094053    -2.1133009333    -1.1581763130
   30      H      -2.9352470188    -0.6727151587    -2.1549394554
   31      H      -4.2964331778    -1.3924919219    -1.2846823380
 ----------------------------------------------------------------

    9    -742.8741476691      6.06e-06  Convergence criterion met
 Total energy in the final basis set =     -742.8741476691

                    Orbital Energies (a.u.)
 --------------------------------------------------------------

 Alpha MOs
 -- Occupied --
-19.2112 -19.1472 -14.4331 -14.3513 -14.3229 -10.3624 -10.2727 -10.2674
-10.2398 -10.2020 -10.1948 -10.1923 -10.1903 -10.1839 -10.1836 -10.1821
 -1.1417  -1.0818  -1.0429  -0.9143  -0.8645  -0.8267  -0.7836  -0.7696
 -0.7117  -0.7071  -0.6943  -0.6515  -0.6305  -0.6043  -0.5555  -0.5509
 -0.5250  -0.5105  -0.4891  -0.4761  -0.4702  -0.4652  -0.4585  -0.4442
 -0.4408  -0.4296  -0.4174  -0.4105  -0.3986  -0.3853  -0.3827  -0.3677
 -0.3657  -0.3638  -0.3511  -0.3341  -0.3264  -0.3210  -0.3126  -0.2994
 -0.2657  -0.2634  -0.2291

          Ground-State Mulliken Net Atomic Charges

     Atom                 Charge (a.u.)
  ----------------------------------------
      1 C                    -0.334901
      2 C                    -0.092108
      3 C                     0.441197
      4 N                    -0.547519
      5 C                     0.516345
      6 C                    -0.112825
      7 C                    -0.328240
      8 N                    -0.436252
      9 C                     0.830802
     10 O                    -0.443744
     11 O                    -0.506714
     12 C                     0.297717
     13 C                    -0.469754
     14 C                    -0.457902
     15 C                    -0.470265
     16 N                    -0.327718
     17 H                     0.146606
     18 H                     0.175845
     19 H                     0.146559
     20 H                     0.171338
     21 H                     0.182015
     22 H                     0.149833
     23 H                     0.151946
     24 H                     0.194044
     25 H                     0.151408
     26 H                     0.157551
     27 H                     0.156992
     28 H                     0.159344
     29 H                     0.194399
     30 H                     0.152966
     31 H                     0.151035
  ----------------------------------------
  Sum of atomic charges =     0.000000

                    Cartesian Multipole Moments
 -----------------------------------------------------------------
    Charge (ESU x 10^10)
                 0.0000
    Dipole Moment (Debye)
         X      -3.2467      Y       2.0284      Z      -0.1236
       Tot       3.8302
    Quadrupole Moments (Debye-Ang)
        XX     -79.8396     XY      -2.7317     YY     -95.1932
        XZ      -0.0658     YZ       0.5374     ZZ     -94.4966

 Total job time:  52.95s(wall), 52.80s(cpu)
        *  Thank you very much for using Q-Chem.  Have a nice day.  *
