 Q-Chem 5.2, Q-Chem, Inc., Pleasanton, CA (2019)
 Q-Chem 5.2.1 for Intel X86 EM64T Linux

User input:
--------------------------------------------------------------
$molecule
0 1
C        -3.88188352120000   -0.53347673940000    0.16022652360000
C        -2.81842947520000    0.10763211820000   -0.30567647350000
C        -1.44283755840000   -0.33100062650000   -0.12660790170000
C        -1.07547996470000   -1.64335592900000   -0.01736757860000
S         0.61338655110000   -1.86736642820000    0.08060987810000
C         0.88272634160000   -0.14813078640000   -0.03114064840000
C         2.23532315280000    0.41780932180000   -0.00411477300000
O         2.45619137410000    1.60061963030000   -0.02913633380000
O         3.25436327470000   -0.46197873970000    0.04306099400000
C        -0.30941868550000    0.54404548560000   -0.12804777860000
C        -0.38522876100000    1.99266342240000   -0.20435205280000
C        -1.32697744680000    2.71951257180000    0.38458504880000
H        -4.87930116740000   -0.17198713060000   -0.01935319710000
H        -3.79730238410000   -1.43053799020000    0.75031671350000
H        -2.93500587570000    1.02469220870000   -0.86771783250000
H        -1.71321137600000   -2.50521146100000   -0.01787270250000
H         2.96455551440000   -1.38370550770000    0.05803412920000
H         0.42427866490000    2.47047343630000   -0.73736221190000
H        -2.10195879140000    2.27868947590000    0.99038632890000
H        -1.33124358350000    3.79282050030000    0.30572390770000
$end

$rem
BASIS = 6-31G*
GUI = 2
METHOD = B3LYP
PRINT_ORBITALS false
MOLDEN_FORMAT false
--------------------------------------------------------------

             Standard Nuclear Orientation (Angstroms)
    I     Atom           X                Y                Z
 ----------------------------------------------------------------
    1      C       3.8051114829    -0.6018668572    -0.1441405853
    2      C       2.7479467516     0.0526323674     0.3174373320
    3      C       1.3677423966    -0.3694412504     0.1341147769
    4      C       0.9848286825    -1.6773525834     0.0249977638
    5      S      -0.7062924316    -1.8809227989    -0.0785345432
    6      C      -0.9550861070    -0.1584186121     0.0304807235
    7      C      -2.3006007031     0.4238927250    -0.0017794068
    8      O      -2.5071534799     1.6093273257     0.0212387038
    9      O      -3.3300968404    -0.4434933886    -0.0515226406
   10      C       0.2450498262     0.5193197739     0.1307462268
   11      C       0.3382087852     1.9669917541     0.2057841025
   12      C       1.2907329144     2.6816934399    -0.3806853907
   13      H       4.8062319079    -0.2523327552     0.0384775426
   14      H       3.7116444018    -1.4984791809    -0.7335721203
   15      H       2.8737455535     0.9688223754     0.8789088688
   16      H       1.6120270912    -2.5468960058     0.0285976035
   17      H      -3.0514695026    -1.3686909658    -0.0645309911
   18      H      -0.4672445902     2.4551906508     0.7355115880
   19      H       2.0623613976     2.2308187232    -0.9833608847
   20      H       1.3077810335     3.7549559007    -0.3029406763
 ----------------------------------------------------------------

   10    -896.3570328473      3.28e-06  Convergence criterion met
 Total energy in the final basis set =     -896.3570328473

                    Orbital Energies (a.u.)
 --------------------------------------------------------------

 Alpha MOs
 -- Occupied --
-88.9330 -19.1968 -19.1322 -10.3255 -10.2364 -10.2349 -10.2223 -10.2171
-10.2036 -10.1963 -10.1922 -10.1890  -7.9952  -5.9591  -5.9554  -5.9524
 -1.1066  -1.0220  -0.9124  -0.8147  -0.8013  -0.7444  -0.7319  -0.6517
 -0.6266  -0.6087  -0.5977  -0.5387  -0.5183  -0.4886  -0.4622  -0.4585
 -0.4500  -0.4403  -0.4290  -0.4167  -0.4000  -0.3882  -0.3824  -0.3626
 -0.3597  -0.3204  -0.3115  -0.3033  -0.2729  -0.2431  -0.2386

          Ground-State Mulliken Net Atomic Charges

     Atom                 Charge (a.u.)
  ----------------------------------------
      1 C                    -0.347634
      2 C                    -0.113248
      3 C                     0.133618
      4 C                    -0.397549
      5 S                     0.247908
      6 C                    -0.325938
      7 C                     0.626394
      8 O                    -0.455862
      9 O                    -0.583557
     10 C                     0.114496
     11 C                    -0.101809
     12 C                    -0.347307
     13 H                     0.150438
     14 H                     0.143095
     15 H                     0.155401
     16 H                     0.185367
     17 H                     0.423163
     18 H                     0.179090
     19 H                     0.159921
     20 H                     0.154012
  ----------------------------------------
  Sum of atomic charges =     0.000000

                    Cartesian Multipole Moments
 -----------------------------------------------------------------
    Charge (ESU x 10^10)
                 0.0000
    Dipole Moment (Debye)
         X       3.3738      Y      -2.8659      Z       0.1190
       Tot       4.4283
    Quadrupole Moments (Debye-Ang)
        XX     -79.4638     XY       8.0668     YY     -70.5074
        XZ      -0.8544     YZ       1.4770     ZZ     -77.3931

 Total job time:  30.46s(wall), 30.35s(cpu)
        *  Thank you very much for using Q-Chem.  Have a nice day.  *
