 Q-Chem 5.2, Q-Chem, Inc., Pleasanton, CA (2019)
 Q-Chem 5.2.1 for Intel X86 EM64T Linux

User input:
--------------------------------------------------------------
$molecule
0 1
C         3.50224914200000    1.44176137200000    0.02967546360000
C         2.78509866350000    0.34799599250000   -0.21148534390000
C         1.35502580600000    0.26195588950000   -0.08106966400000
S         0.40389612620000    1.73043881030000    0.04257477880000
C        -1.07487188070000    0.81796845450000    0.02537477810000
C        -2.36118164800000    1.32943371080000    0.10014067460000
C        -3.42023827640000    0.44595951480000    0.07298256720000
C        -3.19805563310000   -0.92740000630000   -0.02068931560000
C        -1.92010314150000   -1.43543577120000   -0.08938269460000
C        -0.82908153760000   -0.56361139590000   -0.07495574290000
C         0.57322288270000   -0.86658073330000   -0.12507760960000
C         1.06440581880000   -2.23228242410000   -0.20452587890000
C         2.13093986380000   -2.70499260510000    0.42817538920000
H         4.56949700580000    1.45825940270000   -0.10351732150000
H         3.04143383100000    2.35310956640000    0.37414778450000
H         3.26802278770000   -0.56120428730000   -0.54575392730000
H        -2.52045743130000    2.39384900720000    0.17739188160000
H        -4.43110915310000    0.82097195740000    0.12744309150000
H        -4.04280887580000   -1.60003538820000   -0.03607127850000
H        -1.75732007670000   -2.50082740330000   -0.15159823670000
H         0.46426913280000   -2.89719349030000   -0.81370072280000
H         2.72129709050000   -2.09404233820000    1.08995789030000
H         2.43505540750000   -3.73283814250000    0.32495942030000
$end

$rem
BASIS = 6-31G*
GUI = 2
METHOD = B3LYP
PRINT_ORBITALS false
MOLDEN_FORMAT false
--------------------------------------------------------------

             Standard Nuclear Orientation (Angstroms)
    I     Atom           X                Y                Z
 ----------------------------------------------------------------
    1      C       3.4747061556    -1.4945918554    -0.0183202161
    2      C       2.7635247022    -0.3961845582     0.2193947371
    3      C       1.3342106685    -0.3020676244     0.0862672705
    4      S       0.3747492126    -1.7652233576    -0.0361529886
    5      C      -1.0986979493    -0.8441134716    -0.0233918211
    6      C      -2.3878359178    -1.3482178117    -0.0994285078
    7      C      -3.4417662569    -0.4585309659    -0.0759058219
    8      C      -3.2117403655     0.9136938032     0.0154352712
    9      C      -1.9309688050     1.4144053342     0.0853914150
   10      C      -0.8450285923     0.5362070988     0.0746335294
   11      C       0.5589289317     0.8310939673     0.1266461610
   12      C       1.0579305520     2.1940641653     0.2042569518
   13      C       2.1283198609     2.6592844367    -0.4274846927
   14      H       4.5416027713    -1.5170469017     0.1168015368
   15      H       3.0091904094    -2.4039229119    -0.3618017759
   16      H       3.2511543346     0.5108493563     0.5527161495
   17      H      -2.5531825984    -2.4118382711    -0.1748502602
   18      H      -4.4547101795    -0.8277506357    -0.1314184808
   19      H      -4.0525806317     1.5912727666     0.0279811041
   20      H      -1.7620826650     2.4789516679     0.1457818514
   21      H       0.4606088393     2.8636770929     0.8110436170
   22      H       2.7162700094     2.0435833678    -1.0870032891
   23      H       2.4382444045     3.6855430787    -0.3257682932
 ----------------------------------------------------------------

    9    -861.4508632740      4.27e-06  Convergence criterion met
 Total energy in the final basis set =     -861.4508632740

                    Orbital Energies (a.u.)
 --------------------------------------------------------------

 Alpha MOs
 -- Occupied --
-88.8995 -10.2224 -10.2175 -10.1994 -10.1974 -10.1966 -10.1960 -10.1938
-10.1903 -10.1894 -10.1869 -10.1854 -10.1835  -7.9614  -5.9256  -5.9221
 -5.9178  -0.8992  -0.8406  -0.7992  -0.7839  -0.7579  -0.7165  -0.7049
 -0.6334  -0.6134  -0.5888  -0.5653  -0.5364  -0.5011  -0.4862  -0.4707
 -0.4562  -0.4440  -0.4280  -0.4219  -0.4054  -0.4006  -0.3871  -0.3707
 -0.3572  -0.3475  -0.3398  -0.3298  -0.3008  -0.2872  -0.2623  -0.2250
 -0.2045

          Ground-State Mulliken Net Atomic Charges

     Atom                 Charge (a.u.)
  ----------------------------------------
      1 C                    -0.375326
      2 C                    -0.058612
      3 C                    -0.221496
      4 S                     0.225524
      5 C                    -0.139758
      6 C                    -0.178952
      7 C                    -0.116336
      8 C                    -0.143561
      9 C                    -0.172619
     10 C                     0.111553
     11 C                     0.103112
     12 C                    -0.119265
     13 C                    -0.342611
     14 H                     0.147834
     15 H                     0.158988
     16 H                     0.150848
     17 H                     0.139557
     18 H                     0.130369
     19 H                     0.128949
     20 H                     0.129404
     21 H                     0.139824
     22 H                     0.157713
     23 H                     0.144860
  ----------------------------------------
  Sum of atomic charges =     0.000000

                    Cartesian Multipole Moments
 -----------------------------------------------------------------
    Charge (ESU x 10^10)
                -0.0000
    Dipole Moment (Debye)
         X      -0.1100      Y       0.8531      Z       0.0576
       Tot       0.8621
    Quadrupole Moments (Debye-Ang)
        XX     -72.4942     XY       1.3442     YY     -75.9541
        XZ      -0.3319     YZ       1.6447     ZZ     -86.8964

 Total job time:  35.77s(wall), 35.65s(cpu)
        *  Thank you very much for using Q-Chem.  Have a nice day.  *
