 Q-Chem 5.2, Q-Chem, Inc., Pleasanton, CA (2019)
 Q-Chem 5.2.1 for Intel X86 EM64T Linux

User input:
--------------------------------------------------------------
$molecule
0 1
C        -3.12422927490000    1.90673784090000    2.69460017350000
C        -4.11131894660000    1.76377031240000    1.81942474400000
C        -3.98094509230000    0.97912858750000    0.59557345140000
C        -5.04965239600000    0.86854836780000   -0.29990486610000
C        -4.87531165340000    0.12632769250000   -1.45387866780000
C        -3.65716229670000   -0.49126251050000   -1.68007511580000
C        -2.64841359690000   -0.33900940650000   -0.72529204690000
C        -1.32351745650000   -0.96688037250000   -0.89515846470000
C        -1.17165775400000   -2.19828966640000   -1.53626080020000
C         0.10259942050000   -2.72751473990000   -1.65872081760000
C         1.17611510760000   -2.02478042720000   -1.14344323470000
C         0.92681698300000   -0.80722937500000   -0.50665650310000
C         2.02292476130000   -0.02035864980000    0.07792151040000
C         1.75129938630000    1.17242663870000    0.75103113160000
C         2.81385428050000    1.87623094830000    1.28854520300000
C         4.09696954300000    1.37883424300000    1.14175086520000
C         4.27973343360000    0.17612834130000    0.45251630670000
C         5.58251628110000   -0.44557483970000    0.23421291380000
C         6.75746603110000    0.01143946140000    0.64764879210000
N         3.25341597760000   -0.49685067220000   -0.06226672710000
N        -0.29419882080000   -0.30132117330000   -0.39262515830000
N        -2.81574053360000    0.38180472590000    0.37178705990000
H        -3.23426436280000    2.49014813400000    3.59270942400000
H        -2.17553764270000    1.42995459090000    2.51752318080000
H        -5.07387315690000    2.23360340170000    1.97562301980000
H        -5.98847259190000    1.36010733010000   -0.09280201680000
H        -5.67793034720000    0.03174486710000   -2.17208996820000
H        -3.48463527350000   -1.05711484560000   -2.58230368100000
H        -2.03019135320000   -2.73606788800000   -1.90803668640000
H         0.25276343910000   -3.67989951530000   -2.14784170150000
H         2.18858503740000   -2.38688144450000   -1.21129379680000
H         0.73038420160000    1.50707047440000    0.83167722730000
H         2.64602369030000    2.80396822500000    1.81762794420000
H         4.94034420270000    1.91060721800000    1.55210275320000
H         5.52462762660000   -1.36929613720000   -0.32567625940000
H         6.86582351500000    0.92454988590000    1.20819351790000
H         7.66951890290000   -0.52050145710000    0.43716297440000
$end

$rem
BASIS = 6-31G*
GUI = 2
METHOD = B3LYP
PRINT_ORBITALS false
MOLDEN_FORMAT false
--------------------------------------------------------------

             Standard Nuclear Orientation (Angstroms)
    I     Atom           X                Y                Z
 ----------------------------------------------------------------
    1      C      -3.0397483093    -3.2352212871    -0.9574840093
    2      C      -4.0717428263    -2.5553723405    -0.4742547746
    3      C      -3.9844511002    -1.1532618977    -0.0781002271
    4      C      -5.1003989047    -0.4848566714     0.4358449591
    5      C      -4.9667220089     0.8395054811     0.8115271877
    6      C      -3.7405305584     1.4631967248     0.6568206714
    7      C      -2.6824578778     0.7235706135     0.1222170109
    8      C      -1.3459533683     1.3184706974    -0.0734253131
    9      C      -1.1835262027     2.6651342147    -0.4059267568
   10      C       0.1013553350     3.1543903836    -0.5747900627
   11      C       1.1748318462     2.2983087406    -0.4118335271
   12      C       0.9155287213     0.9638367957    -0.0924216007
   13      C       2.0123415802    -0.0009149714     0.0767080367
   14      C       1.7339935602    -1.3413850050     0.3510365252
   15      C       2.7978513793    -2.2132053593     0.4973942950
   16      C       4.0887888273    -1.7313479124     0.3684340560
   17      C       4.2779344212    -0.3736567518     0.0930306082
   18      C       5.5891803124     0.2487157361    -0.0641351116
   19      C       6.7675991170    -0.3553029105     0.0182591072
   20      N       3.2503493513     0.4604132924    -0.0470619696
   21      N      -0.3158205378     0.4981289908     0.0710442734
   22      N      -2.8117391598    -0.5468295482    -0.2249481705
   23      H      -3.1184388910    -4.2699638388    -1.2441740171
   24      H      -2.0850199289    -2.7520069930    -1.0744968612
   25      H      -5.0412871889    -3.0196296416    -0.3473669185
   26      H      -6.0440520775    -0.9990000906     0.5411084280
   27      H      -5.8071366334     1.3805524105     1.2237669598
   28      H      -3.6004813580     2.4882521167     0.9627920555
   29      H      -2.0405551276     3.3048438712    -0.5500643417
   30      H       0.2600138198     4.1917767912    -0.8345633458
   31      H       2.1951648047     2.6238965375    -0.5290062399
   32      H       0.7071349516    -1.6551328454     0.4398159966
   33      H       2.6250132595    -3.2590560384     0.7097982732
   34      H       4.9332964079    -2.3924630749     0.4788227950
   35      H       5.5348643090     1.3097699949    -0.2673631848
   36      H       6.8727196490    -1.4083630176     0.2175991828
   37      H       7.6859927670     0.1909089900    -0.1133141606
 ----------------------------------------------------------------

    9    -897.2803145596      2.65e-06  Convergence criterion met
 Total energy in the final basis set =     -897.2803145596

                    Orbital Energies (a.u.)
 --------------------------------------------------------------

 Alpha MOs
 -- Occupied --
-14.3206 -14.3200 -14.3177 -10.2244 -10.2234 -10.2232 -10.2232 -10.2203
-10.2186 -10.2047 -10.2022 -10.1998 -10.1952 -10.1949 -10.1938 -10.1924
-10.1878 -10.1862 -10.1844 -10.1829 -10.1826 -10.1752  -0.9619  -0.9488
 -0.9341  -0.8154  -0.8074  -0.8037  -0.7994  -0.7957  -0.7679  -0.7388
 -0.7219  -0.6612  -0.6549  -0.6404  -0.6331  -0.6084  -0.5933  -0.5699
 -0.5574  -0.5288  -0.5107  -0.4993  -0.4944  -0.4873  -0.4756  -0.4665
 -0.4582  -0.4485  -0.4362  -0.4253  -0.4228  -0.4185  -0.4105  -0.4063
 -0.3979  -0.3960  -0.3858  -0.3818  -0.3763  -0.3611  -0.3528  -0.3480
 -0.3153  -0.3054  -0.2942  -0.2902  -0.2738  -0.2604  -0.2506  -0.2485
 -0.2408  -0.2289  -0.2194

          Ground-State Mulliken Net Atomic Charges

     Atom                 Charge (a.u.)
  ----------------------------------------
      1 C                    -0.333218
      2 C                    -0.114108
      3 C                     0.327508
      4 C                    -0.184374
      5 C                    -0.100021
      6 C                    -0.170749
      7 C                     0.249127
      8 C                     0.259036
      9 C                    -0.170140
     10 C                    -0.102637
     11 C                    -0.152453
     12 C                     0.270305
     13 C                     0.257380
     14 C                    -0.157858
     15 C                    -0.100363
     16 C                    -0.175430
     17 C                     0.316713
     18 C                    -0.093629
     19 C                    -0.347901
     20 N                    -0.584970
     21 N                    -0.541069
     22 N                    -0.532655
     23 H                     0.139587
     24 H                     0.179581
     25 H                     0.123432
     26 H                     0.134634
     27 H                     0.139429
     28 H                     0.137766
     29 H                     0.137891
     30 H                     0.139943
     31 H                     0.163148
     32 H                     0.180062
     33 H                     0.140352
     34 H                     0.134003
     35 H                     0.140823
     36 H                     0.142656
     37 H                     0.148200
  ----------------------------------------
  Sum of atomic charges =     0.000001

                    Cartesian Multipole Moments
 -----------------------------------------------------------------
    Charge (ESU x 10^10)
                 0.0000
    Dipole Moment (Debye)
         X      -1.1808      Y       0.5243      Z       0.5108
       Tot       1.3893
    Quadrupole Moments (Debye-Ang)
        XX    -102.1919     XY      -6.9222     YY    -108.2568
        XZ      -2.8545     YZ      -1.2413     ZZ    -129.6267

 Total job time:  87.98s(wall), 87.60s(cpu)
        *  Thank you very much for using Q-Chem.  Have a nice day.  *
