 Q-Chem 5.2, Q-Chem, Inc., Pleasanton, CA (2019)
 Q-Chem 5.2.1 for Intel X86 EM64T Linux

User input:
--------------------------------------------------------------
$molecule
0 1
C        -8.02105155440000    0.15560259220000   -0.61062555830000
C        -7.12860703700000   -0.23492138440000    0.29174413290000
C        -5.67843307960000   -0.14977112390000    0.18089423790000
C        -4.89290044920000   -0.55281800670000    1.26284514880000
C        -3.51602617250000   -0.49093128210000    1.20886151300000
C        -2.87040089230000   -0.01313154920000    0.07140805310000
C        -1.39829881140000    0.02925855830000    0.02147876650000
C        -0.69456735010000   -1.14012855340000    0.29010337640000
C         0.68959191700000   -1.20088378180000    0.26296065780000
C         1.37463733120000   -2.50940112760000    0.52706675620000
C         1.39836580540000   -0.03439124890000   -0.03711069720000
C         2.87073154050000    0.00839010910000   -0.08020619260000
C         3.52343508210000    0.47955438310000   -1.21624959030000
C         4.90072948570000    0.54060000290000   -1.26180308170000
C         5.67924533350000    0.14576921250000   -0.17176343010000
C         7.13001948770000    0.23206777890000   -0.27312485250000
C         8.01578072930000   -0.10590469570000    0.65676237810000
C         5.01832409980000   -0.31139811380000    0.96960733330000
C         3.64156946030000   -0.38104761990000    1.01261973130000
C         0.69476721740000    1.13460528050000   -0.30729266940000
C        -0.68948763110000    1.19539603470000   -0.28015658820000
C        -1.37402329370000    2.50403871740000   -0.54499800350000
C        -3.64828119120000    0.38203072690000   -1.01434024440000
C        -5.02483236040000    0.31300242880000   -0.96238706100000
H        -9.07785838250000    0.05148500800000   -0.43347986400000
H        -7.74454052840000    0.59336823540000   -1.55440278860000
H        -7.48142162030000   -0.66227010190000    1.22318887580000
H        -5.37529300380000   -0.91856155070000    2.15894522750000
H        -2.92683834790000   -0.80083928020000    2.06037497270000
H        -1.25415840560000   -2.03978247530000    0.50796038980000
H         0.76780174220000   -3.33266362050000    0.15506602800000
H         1.51399764220000   -2.65817088510000    1.59826865110000
H         2.35083114720000   -2.54575246500000    0.04951775560000
H         2.93969983460000    0.78440791070000   -2.07332796750000
H         5.38893814320000    0.90082504940000   -2.15698822180000
H         7.48971578040000    0.61597444460000   -1.22074395430000
H         7.73277428350000   -0.49449216850000    1.62002448430000
H         9.07361293610000   -0.00421864720000    0.48449277900000
H         5.58670267680000   -0.61449533550000    1.83544488550000
H         3.15034993490000   -0.72225160860000    1.91203874380000
H         1.25449461050000    2.03410796470000   -0.52546999560000
H        -0.76573389700000    3.32745327740000   -0.17570187070000
H        -2.34920347330000    2.54208155940000   -0.06550613570000
H        -1.51539216830000    2.65105694720000   -1.61620911630000
H        -3.16308203170000    0.72676280980000   -1.91565737110000
H        -5.59882495880000    0.61855999350000   -1.82367301870000
$end

$rem
BASIS = 6-31G*
GUI = 2
METHOD = B3LYP
PRINT_ORBITALS false
MOLDEN_FORMAT false
--------------------------------------------------------------

             Standard Nuclear Orientation (Angstroms)
    I     Atom           X                Y                Z
 ----------------------------------------------------------------
    1      C       8.0262265308    -0.3853214645    -0.4068252043
    2      C       7.1243015191     0.4310086227     0.1255033732
    3      C       5.6756590677     0.2836858212     0.0778188569
    4      C       4.8792361542     1.2111784859     0.7527958760
    5      C       3.5032989697     1.1155177784     0.7396479916
    6      C       2.8696123471     0.0802576417     0.0572971476
    7      C       1.3982757332     0.0020816239     0.0365252880
    8      C       0.6837887612     1.1166552097    -0.3902034975
    9      C      -0.7005553789     1.1378361573    -0.4490887329
   10      C      -1.3973756533     2.3658363772    -0.9567439900
   11      C      -1.3982884949    -0.0063709583    -0.0527723847
   12      C      -2.8699356153    -0.0810834575    -0.0676424719
   13      C      -3.5107605267    -1.1101143988    -0.7525154840
   14      C      -4.8871856319    -1.2004022895    -0.7591176773
   15      C      -5.6765890418    -0.2751839678    -0.0728392834
   16      C      -7.1258921579    -0.4182035665    -0.1119940915
   17      C      -8.0209378073     0.3697467098     0.4723998509
   18      C      -5.0274799712     0.7452438732     0.6242478681
   19      C      -3.6516410846     0.8412737288     0.6239608273
   20      C      -0.6839259858    -1.1214850965     0.3724438205
   21      C       0.7005140472    -1.1426982929     0.4313434261
   22      C       1.3968309061    -2.3712160349     0.9384555528
   23      C       3.6583514609    -0.8428619536    -0.6252284363
   24      C       5.0339263976    -0.7423901938    -0.6177331406
   25      H       9.0808968780    -0.1894999400    -0.3152493920
   26      H       7.7599192838    -1.2760032793    -0.9495764561
   27      H       7.4670767395     1.3069703987     0.6639181585
   28      H       5.3523053765     2.0176195055     1.2962336927
   29      H       2.9055938424     1.8397000566     1.2749694285
   30      H       1.2349628899     1.9917248979    -0.7071279797
   31      H      -0.7940819090     2.8505634343    -1.7219050478
   32      H      -1.5456621920     3.0825110031    -0.1484025895
   33      H      -2.3703086594     2.1210236888    -1.3760254554
   34      H      -2.9185052952    -1.8332359469    -1.2952813861
   35      H      -5.3661190046    -2.0018049782    -1.3048674070
   36      H      -7.4757590324    -1.2670718704    -0.6879832283
   37      H      -7.7479059686     1.2303960931     1.0586617478
   38      H      -9.0766873995     0.1786428493     0.3835293942
   39      H      -5.6044299686     1.4719230455     1.1753040180
   40      H      -3.1695841555     1.6292333065     1.1837930925
   41      H      -1.2352352521    -1.9966081057     0.6890176521
   42      H       0.7921043017    -2.8575852554     1.7014482636
   43      H       2.3687489478    -2.1267429631     1.3602900335
   44      H       1.5471127304    -3.0864179503     0.1291383342
   45      H       3.1823550625    -1.6347474743    -1.1846707901
   46      H       5.6164755130    -1.4685326474    -1.1636269898
 ----------------------------------------------------------------

    8    -927.7859986481      3.56e-06  Convergence criterion met
 Total energy in the final basis set =     -927.7859986481

                    Orbital Energies (a.u.)
 --------------------------------------------------------------

 Alpha MOs
 -- Occupied --
-10.1926 -10.1926 -10.1916 -10.1915 -10.1888 -10.1887 -10.1878 -10.1877
-10.1865 -10.1864 -10.1858 -10.1858 -10.1856 -10.1856 -10.1852 -10.1852
-10.1842 -10.1841 -10.1783 -10.1783 -10.1772 -10.1771 -10.1743 -10.1742
 -0.8772  -0.8662  -0.8516  -0.8091  -0.7905  -0.7820  -0.7579  -0.7485
 -0.7475  -0.7325  -0.7150  -0.7019  -0.6536  -0.6413  -0.6186  -0.6117
 -0.6016  -0.5929  -0.5617  -0.5592  -0.5562  -0.5088  -0.5054  -0.4855
 -0.4806  -0.4680  -0.4611  -0.4570  -0.4463  -0.4388  -0.4298  -0.4246
 -0.4240  -0.4208  -0.4136  -0.4109  -0.4090  -0.4031  -0.3909  -0.3902
 -0.3739  -0.3737  -0.3708  -0.3690  -0.3546  -0.3460  -0.3437  -0.3411
 -0.3326  -0.3301  -0.3214  -0.2998  -0.2957  -0.2525  -0.2522  -0.2496
 -0.2320  -0.2212  -0.2066

          Ground-State Mulliken Net Atomic Charges

     Atom                 Charge (a.u.)
  ----------------------------------------
      1 C                    -0.353427
      2 C                    -0.114184
      3 C                     0.183044
      4 C                    -0.204363
      5 C                    -0.163025
      6 C                     0.056125
      7 C                     0.040099
      8 C                    -0.242375
      9 C                     0.144464
     10 C                    -0.534771
     11 C                     0.039666
     12 C                     0.055652
     13 C                    -0.162983
     14 C                    -0.204455
     15 C                     0.183176
     16 C                    -0.114034
     17 C                    -0.353649
     18 C                    -0.189810
     19 C                    -0.162158
     20 C                    -0.241982
     21 C                     0.144399
     22 C                    -0.534942
     23 C                    -0.162579
     24 C                    -0.189911
     25 H                     0.143727
     26 H                     0.141956
     27 H                     0.126074
     28 H                     0.127368
     29 H                     0.132282
     30 H                     0.124103
     31 H                     0.156284
     32 H                     0.159579
     33 H                     0.170630
     34 H                     0.132247
     35 H                     0.127389
     36 H                     0.126025
     37 H                     0.142002
     38 H                     0.143739
     39 H                     0.126636
     40 H                     0.132335
     41 H                     0.124071
     42 H                     0.156290
     43 H                     0.170670
     44 H                     0.159591
     45 H                     0.132349
     46 H                     0.126677
  ----------------------------------------
  Sum of atomic charges =     0.000000

                    Cartesian Multipole Moments
 -----------------------------------------------------------------
    Charge (ESU x 10^10)
                 0.0000
    Dipole Moment (Debye)
         X      -0.0007      Y       0.0015      Z      -0.0002
       Tot       0.0016
    Quadrupole Moments (Debye-Ang)
        XX    -131.0933     XY       0.2088     YY    -131.5434
        XZ       0.0983     YZ       6.3534     ZZ    -142.0922

 Total job time:  108.09s(wall), 107.14s(cpu)
        *  Thank you very much for using Q-Chem.  Have a nice day.  *
