 Q-Chem 5.4, Q-Chem, Inc., Pleasanton, CA (2021)
 Q-Chem 5.4.2 for Intel X86 EM64T Linux

User input:
--------------------------------------------------------------
$molecule
0 1
C           -4.58130249330000       -0.48042365090000       -0.19925739130000
C           -3.63513491970000        0.34708263070000        0.22471637500000
C           -2.19884164970000        0.10956523840000        0.10157367450000
C           -1.69235177300000       -1.18762426700000        0.14359168310000
C           -0.34169055250000       -1.46651204410000        0.03941366270000
C            0.13062179390000       -2.88840431640000        0.11009960860000
C            0.55488937870000       -0.39655914490000       -0.11051310990000
C            1.98156660320000       -0.66043148630000       -0.23516809740000
C            2.98161454120000        0.18070925390000       -0.02190066450000
F            2.92186308850000        1.44712648460000        0.37672823730000
F            4.26344350750000       -0.16003387180000       -0.17254180450000
C            0.04988790320000        0.90303338630000       -0.15387078690000
C           -1.30165996450000        1.17692490390000       -0.04791033940000
C           -1.78232569640000        2.59514528380000       -0.11970688720000
H           -5.62644667330000       -0.25322940290000       -0.07577688450000
H           -4.35306933580000       -1.40478897730000       -0.70301756100000
H           -3.92026672520000        1.28099657930000        0.69053497020000
H           -2.38308560950000       -2.00605274620000        0.28469646750000
H           -0.70675641760000       -3.55466364220000        0.30094923440000
H            0.86019856240000       -3.01700003730000        0.90817244940000
H            0.59511612040000       -3.18947810440000       -0.82894182470000
H            2.28199257150000       -1.65500534860000       -0.52691475140000
H            0.73094161700000        1.72849956980000       -0.28865266530000
H           -0.95490722300000        3.26702147880000       -0.33265650060000
H           -2.23028041380000        2.89676251050000        0.82719171450000
H           -2.53376278380000        2.70887550780000       -0.89956718380000
$end

$rem
BASIS = 6-31G*
GUI = 2
METHOD = B3LYP
PRINT_ORBITALS false
MOLDEN_FORMAT false
$end
--------------------------------------------------------------

             Standard Nuclear Orientation (Angstroms)
    I     Atom           X                Y                Z
 ----------------------------------------------------------------
    1      C       4.4494981731    -0.5315441924     0.2031991189
    2      C       3.5177937778     0.3122056290    -0.2207898391
    3      C       2.0775755532     0.0977951276    -0.1011378595
    4      C       1.5501531674    -1.1908871384    -0.1472004831
    5      C       0.1949224618    -1.4480116093    -0.0464337929
    6      C      -0.3002945070    -2.8618700849    -0.1213834718
    7      C      -0.6844554994    -0.3639658913     0.1041387790
    8      C      -2.1154905677    -0.6048876160     0.2252615974
    9      C      -3.1012855265     0.2528894292     0.0118993210
   10      F      -3.0201235566     1.5190753208    -0.3836684510
   11      F      -4.3887956152    -0.0673075589     0.1591263219
   12      C      -0.1584850411     0.9271402183     0.1515435915
   13      C       1.1975546839     1.1792587589     0.0489847104
   14      C       1.7010619088     2.5893074602     0.1250535652
   15      H       5.4984527305    -0.3210939933     0.0823849263
   16      H       4.2052187040    -1.4532248128     0.7043461178
   17      H       3.8190404158     1.2424216095    -0.6838568603
   18      H       2.2277832723    -2.0201151446    -0.2887890537
   19      H       0.5265377160    -3.5412204235    -0.3120636501
   20      H      -1.0302007329    -2.9767604312    -0.9212437655
   21      H      -0.7715777850    -3.1574960885     0.8160046850
   22      H      -2.4326527015    -1.5951087802     0.5140855351
   23      H      -0.8263087370     1.7632620175     0.2868454173
   24      H       0.8842333443     3.2740614403     0.3378670336
   25      H       2.1558330073     2.8857637461    -0.8202243097
   26      H       2.4526218053     2.6890204572     0.9067116634
 ----------------------------------------------------------------

    9    -664.1468599249      7.53e-06  Convergence criterion met
 Total energy in the final basis set =     -664.1468599249

                    Orbital Energies (a.u.)
 --------------------------------------------------------------

 Alpha MOs
 -- Occupied --
-24.7411 -24.7312 -10.3540 -10.1993 -10.1980 -10.1918 -10.1898 -10.1879
-10.1875 -10.1826 -10.1798 -10.1794 -10.1791 -10.1788  -1.2816  -1.2208
 -0.8711  -0.8184  -0.7851  -0.7756  -0.7230  -0.7183  -0.6588  -0.6463
 -0.6161  -0.5861  -0.5664  -0.5521  -0.5174  -0.5158  -0.4864  -0.4808
 -0.4485  -0.4397  -0.4359  -0.4337  -0.4307  -0.4201  -0.4147  -0.4095
 -0.4005  -0.3944  -0.3749  -0.3715  -0.3533  -0.3361  -0.3308  -0.3057
 -0.2642  -0.2380  -0.2070

          Ground-State Mulliken Net Atomic Charges

     Atom                 Charge (a.u.)
  ----------------------------------------
      1 C                    -0.338906
      2 C                    -0.130931
      3 C                     0.123507
      4 C                    -0.266019
      5 C                     0.130513
      6 C                    -0.539176
      7 C                     0.151967
      8 C                    -0.314072
      9 C                     0.550501
     10 F                    -0.235513
     11 F                    -0.251316
     12 C                    -0.272354
     13 C                     0.128259
     14 C                    -0.536995
     15 H                     0.141564
     16 H                     0.143255
     17 H                     0.131370
     18 H                     0.121355
     19 H                     0.159709
     20 H                     0.165600
     21 H                     0.162062
     22 H                     0.160430
     23 H                     0.128178
     24 H                     0.158007
     25 H                     0.162458
     26 H                     0.166549
  ----------------------------------------
  Sum of atomic charges =     0.000000

                    Cartesian Multipole Moments
 -----------------------------------------------------------------
    Charge (ESU x 10^10)
                 0.0000
    Dipole Moment (Debye)
         X       0.9159      Y      -0.5626      Z       0.1284
       Tot       1.0826
    Quadrupole Moments (Debye-Ang)
        XX     -80.9950     XY       2.3166     YY     -74.3848
        XZ      -0.8004     YZ      -0.6378     ZZ     -82.5512

 Total job time:  71.75s(wall), 61.99s(cpu)
        *  Thank you very much for using Q-Chem.  Have a nice day.  *
