 Q-Chem 5.2, Q-Chem, Inc., Pleasanton, CA (2019)
 Q-Chem 5.2.1 for Intel X86 EM64T Linux

User input:
--------------------------------------------------------------
$molecule
0 1
C         2.21037777530000   -3.03556643300000   -0.00891885790000
C         2.48925081780000   -1.80490524450000    0.39904487200000
C         1.64175220660000   -0.63468994380000    0.16260853280000
C         0.25755203050000   -0.78141688380000    0.17477850140000
C        -0.55141124930000    0.32196815470000   -0.00351246990000
O        -1.96890772310000    0.27821640280000   -0.00380429420000
C        -2.59151081290000   -0.87243188990000    0.03508686620000
F        -2.41507699430000   -1.57225357290000    1.17475420120000
F        -3.90212460940000   -0.66200741260000   -0.07171159900000
F        -2.26121884970000   -1.72627408950000   -0.95480158060000
C        -0.00570936060000    1.57831760350000   -0.19118307000000
C         1.37192182760000    1.75403294430000   -0.21666947450000
C         1.92258515790000    3.08893774670000   -0.45452554860000
C         1.37993373120000    4.21820712170000   -0.02101312320000
C         2.21389168220000    0.63587338670000   -0.04321302550000
N         3.57991085940000    0.78515723300000   -0.00598302280000
H         2.85923997180000   -3.86484538020000    0.21465730390000
H         1.33285965610000   -3.26008179050000   -0.59142860850000
H         3.39436748380000   -1.62358824590000    0.96555699420000
H        -0.14975338530000   -1.76310744330000    0.35105571450000
H        -0.66572704270000    2.41568395280000   -0.34204563930000
H         2.83187521620000    3.13838904320000   -1.04320267800000
H         0.49177727170000    4.22580335880000    0.58707932870000
H         1.81495345610000    5.17687706060000   -0.24516545280000
H         3.95498911060000    1.65874903980000   -0.33327356760000
H         4.13495917280000   -0.02589378680000   -0.21769231420000
$end

$rem
BASIS = 6-31G*
GUI = 2
METHOD = B3LYP
PRINT_ORBITALS false
MOLDEN_FORMAT false
--------------------------------------------------------------

             Standard Nuclear Orientation (Angstroms)
    I     Atom           X                Y                Z
 ----------------------------------------------------------------
    1      C      -0.3471392283    -3.6986671993     0.2046477948
    2      C      -1.1740597657    -2.7807124071    -0.2773200090
    3      C      -1.0022233895    -1.3355767554    -0.1172728399
    4      C       0.2810045212    -0.7961969111    -0.1263581801
    5      C       0.4528280806     0.5686632448    -0.0200509785
    6      O       1.7152437311     1.2148113340    -0.0232016082
    7      C       2.8162296546     0.5076366358     0.0063376179
    8      F       3.0287803426    -0.2531502742    -1.0871642785
    9      F       3.8597312414     1.3302954616     0.0942568482
   10      F       2.9128761110    -0.3424259350     1.0484851640
   11      C      -0.6356464527     1.4136974365     0.0920433930
   12      C      -1.9274441632     0.9035708003     0.1126010822
   13      C      -3.0594425763     1.8176800379     0.2699552726
   14      C      -3.1173901425     3.0422229168    -0.2348117355
   15      C      -2.1211750003    -0.4898652561     0.0121745348
   16      N      -3.3884285007    -1.0210073871    -0.0282820461
   17      H      -0.5097319003    -4.7492251818     0.0355218923
   18      H       0.5144032569    -3.4384938627     0.7961012469
   19      H      -2.0393605055    -3.0910640297    -0.8500193347
   20      H       1.1155680916    -1.4673770577    -0.2434417818
   21      H      -0.4652913432     2.4726250195     0.1880473985
   22      H      -3.8948880996     1.4549554552     0.8583907051
   23      H      -2.3274500535     3.4435091113    -0.8460564290
   24      H      -3.9663710278     3.6825932174    -0.0684031595
   25      H      -4.1465840438    -0.4202565325     0.2460608478
   26      H      -3.4889832006    -1.9858936308     0.2355104860
 ----------------------------------------------------------------

    9    -854.6462161980      2.81e-06  Convergence criterion met
 Total energy in the final basis set =     -854.6462161980

                    Orbital Energies (a.u.)
 --------------------------------------------------------------

 Alpha MOs
 -- Occupied --
-24.7215 -24.7196 -24.7189 -19.2133 -14.3528 -10.4730 -10.2549 -10.2375
-10.2012 -10.2009 -10.1995 -10.1980 -10.1956 -10.1949 -10.1875 -10.1870
 -1.3174  -1.2173  -1.2120  -1.1108  -0.9399  -0.8619  -0.8163  -0.7893
 -0.7474  -0.7301  -0.6888  -0.6565  -0.6358  -0.6098  -0.5934  -0.5931
 -0.5621  -0.5470  -0.5404  -0.5334  -0.4786  -0.4734  -0.4628  -0.4617
 -0.4563  -0.4525  -0.4386  -0.4352  -0.4282  -0.4161  -0.4098  -0.4003
 -0.3935  -0.3913  -0.3802  -0.3738  -0.3640  -0.3453  -0.3132  -0.3101
 -0.2784  -0.2331  -0.2006

          Ground-State Mulliken Net Atomic Charges

     Atom                 Charge (a.u.)
  ----------------------------------------
      1 C                    -0.335375
      2 C                    -0.153742
      3 C                     0.126260
      4 C                    -0.242729
      5 C                     0.341846
      6 O                    -0.525210
      7 C                     0.971875
      8 F                    -0.279834
      9 F                    -0.257035
     10 F                    -0.280724
     11 C                    -0.249746
     12 C                     0.146552
     13 C                    -0.142033
     14 C                    -0.334395
     15 C                     0.198054
     16 N                    -0.816187
     17 H                     0.145895
     18 H                     0.153163
     19 H                     0.139357
     20 H                     0.162447
     21 H                     0.148877
     22 H                     0.123940
     23 H                     0.151183
     24 H                     0.145195
     25 H                     0.330339
     26 H                     0.332027
  ----------------------------------------
  Sum of atomic charges =     0.000000

                    Cartesian Multipole Moments
 -----------------------------------------------------------------
    Charge (ESU x 10^10)
                 0.0000
    Dipole Moment (Debye)
         X      -4.1378      Y      -1.0530      Z       0.8005
       Tot       4.3441
    Quadrupole Moments (Debye-Ang)
        XX     -83.2543     XY      -0.0082     YY     -81.4005
        XZ      -3.4021     YZ      -1.2501     ZZ     -93.3596

 Total job time:  44.79s(wall), 44.65s(cpu)
        *  Thank you very much for using Q-Chem.  Have a nice day.  *
