 Q-Chem 5.2, Q-Chem, Inc., Pleasanton, CA (2019)
 Q-Chem 5.2.1 for Intel X86 EM64T Linux

User input:
--------------------------------------------------------------
$molecule
0 1
C         3.94619540860000   -2.03405011180000   -0.62190571510000
C         3.21874900300000   -1.65063258580000    0.41045998670000
C         1.96392809630000   -0.87895337650000    0.28448760700000
C         1.99473260760000    0.50930899020000    0.30291189130000
C         0.84705954290000    1.30301260100000    0.17458565640000
C         0.97407057270000    2.75885362180000    0.16192438170000
C         0.22484330560000    3.59196156800000   -0.54816811730000
C        -0.36202744610000    0.62521687600000    0.07052070130000
C        -0.40826463840000   -0.77888390680000    0.05864997270000
C         0.74355463070000   -1.53882700140000    0.15317918980000
C        -1.81189786590000   -1.18966315690000   -0.04536823510000
O        -2.28977853590000   -2.29193326150000   -0.10883591940000
C        -2.59972843190000    0.14898465790000   -0.04954896340000
O        -3.79049838390000    0.31671715230000   -0.08976761180000
N        -1.65213505820000    1.13417376560000    0.00241997350000
H         4.85496281620000   -2.59834922390000   -0.50097084880000
H         3.65778695310000   -1.79759102230000   -1.63298951690000
H         3.51743145270000   -1.89531003520000    1.42265075420000
H         2.95069428000000    1.00432735650000    0.40125621280000
H         1.78531025170000    3.14979438060000    0.76319282530000
H        -0.54821434080000    3.25083350020000   -1.21663820240000
H         0.38992544280000    4.65527212980000   -0.52014009730000
H         0.69038516010000   -2.61610243790000    0.13411122580000
H        -1.86905105070000    2.11627230670000    0.07703256740000
$end

$rem
BASIS = 6-31G*
GUI = 2
METHOD = B3LYP
PRINT_ORBITALS false
MOLDEN_FORMAT false
--------------------------------------------------------------

             Standard Nuclear Orientation (Angstroms)
    I     Atom           X                Y                Z
 ----------------------------------------------------------------
    1      C      -4.2690953935    -0.9506249542     0.7012578194
    2      C      -3.4833530717    -0.7882577105    -0.3466983326
    3      C      -2.0671308654    -0.3748455372    -0.2500629990
    4      C      -1.7297157409     0.9715774211    -0.2931561782
    5      C      -0.4109371283     1.4346417079    -0.1932514983
    6      C      -0.1478825115     2.8721472315    -0.2053066063
    7      C       0.8068013723     3.4869869746     0.4803992179
    8      C       0.5772015353     0.4623156597    -0.0918022788
    9      C       0.2503659312    -0.9035591368    -0.0551644771
   10      C      -1.0629142504    -1.3324957758    -0.1218385569
   11      C       1.4967544531    -1.6699713938     0.0390348966
   12      O       1.6668486790    -2.8584416471     0.1165195832
   13      C       2.6107398673    -0.5879220411     0.0094013575
   14      O       3.8039380659    -0.7410650211     0.0319866280
   15      N       1.9569534223     0.6122517526    -0.0487166209
   16      H      -5.2966839442    -1.2556853995     0.6016745576
   17      H      -3.9116470356    -0.7847259588     1.7042986895
   18      H      -3.8529010695    -0.9593747030    -1.3505716622
   19      H      -2.5220710698     1.7007026903    -0.3886908957
   20      H      -0.8365910043     3.4554683393    -0.8035417875
   21      H       1.4729939464     2.9627594901     1.1453892455
   22      H       0.9285839397     4.5555347574     0.4352143230
   23      H      -1.2964475034    -2.3849892336    -0.0839877057
   24      H       2.4247906396     1.5006464235    -0.1436922927
 ----------------------------------------------------------------

    9    -667.8506816334      8.13e-06  Convergence criterion met
 Total energy in the final basis set =     -667.8506816334

                    Orbital Energies (a.u.)
 --------------------------------------------------------------

 Alpha MOs
 -- Occupied --
-19.1613 -19.1450 -14.3907 -10.3036 -10.2876 -10.2586 -10.2211 -10.2160
-10.2156 -10.2152 -10.2111 -10.2065 -10.2032 -10.2017 -10.1923  -1.0747
 -1.0514  -0.9854  -0.8819  -0.8272  -0.8041  -0.7650  -0.7417  -0.7172
 -0.6545  -0.6258  -0.6025  -0.5761  -0.5681  -0.5410  -0.5113  -0.4925
 -0.4808  -0.4785  -0.4716  -0.4553  -0.4478  -0.4408  -0.4336  -0.4140
 -0.4003  -0.3924  -0.3913  -0.3725  -0.3570  -0.3261  -0.3162  -0.3093
 -0.2795  -0.2616  -0.2451  -0.2315

          Ground-State Mulliken Net Atomic Charges

     Atom                 Charge (a.u.)
  ----------------------------------------
      1 C                    -0.301924
      2 C                    -0.164762
      3 C                     0.108378
      4 C                    -0.240754
      5 C                     0.155423
      6 C                    -0.119363
      7 C                    -0.360912
      8 C                     0.260894
      9 C                     0.068369
     10 C                    -0.217786
     11 C                     0.319559
     12 O                    -0.425890
     13 C                     0.576235
     14 O                    -0.454668
     15 N                    -0.754496
     16 H                     0.148915
     17 H                     0.150260
     18 H                     0.150900
     19 H                     0.142832
     20 H                     0.147058
     21 H                     0.152601
     22 H                     0.157092
     23 H                     0.162922
     24 H                     0.339116
  ----------------------------------------
  Sum of atomic charges =     0.000000

                    Cartesian Multipole Moments
 -----------------------------------------------------------------
    Charge (ESU x 10^10)
                 0.0000
    Dipole Moment (Debye)
         X      -4.1851      Y       4.3540      Z      -0.4469
       Tot       6.0558
    Quadrupole Moments (Debye-Ang)
        XX     -92.5518     XY      11.8483     YY     -85.5628
        XZ       0.8233     YZ       0.0299     ZZ     -83.2872

 Total job time:  41.38s(wall), 41.25s(cpu)
        *  Thank you very much for using Q-Chem.  Have a nice day.  *
