 Q-Chem 5.2, Q-Chem, Inc., Pleasanton, CA (2019)
 Q-Chem 5.2.1 for Intel X86 EM64T Linux

User input:
--------------------------------------------------------------
$molecule
0 1
C        -4.21715779640000   -0.25097632590000   -0.06537502310000
C        -3.31683536450000    0.71484801390000    0.07169742930000
C        -1.86805911620000    0.55417254950000    0.08971534240000
C        -1.22062033280000   -0.67774905640000   -0.00906248760000
C         0.16832007730000   -0.74208366420000    0.01715789560000
C         0.84837932220000   -2.04231173230000   -0.01334804880000
C         0.45766862260000   -3.06465920550000   -0.76208822590000
C         0.87194503520000    0.46882530760000    0.13374490060000
C         2.35524023390000    0.59169617130000    0.12574935330000
O         2.94304010420000    1.42266820070000    0.76036176090000
O         3.02319389120000   -0.25984803270000   -0.67919012540000
C         0.12869441330000    1.64607312510000    0.24884618260000
N        -1.18175280060000    1.69301903370000    0.22421627780000
H        -5.27111612280000   -0.03304821790000   -0.06830349240000
H        -3.95234247960000   -1.28883546570000   -0.17894394140000
H        -3.62954158340000    1.74391967210000    0.18174915550000
H        -1.78859894570000   -1.59188242590000   -0.06996754700000
H         1.70951891660000   -2.14051300170000    0.63644883500000
H        -0.38204052780000   -2.99133838280000   -1.43381827710000
H         0.97469921520000   -4.00828705460000   -0.74362511420000
H         2.43655496300000   -0.87387110580000   -1.14327433170000
H         0.64511113910000    2.59051033310000    0.35730507310000
$end

$rem
BASIS = 6-31G*
GUI = 2
METHOD = B3LYP
PRINT_ORBITALS false
MOLDEN_FORMAT false
--------------------------------------------------------------

             Standard Nuclear Orientation (Angstroms)
    I     Atom           X                Y                Z
 ----------------------------------------------------------------
    1      C       4.1583444653    -0.3493771974     0.0072461555
    2      C       3.2908479287     0.6531617696     0.0747100173
    3      C       1.8377647924     0.5479594328     0.0239583188
    4      C       1.1499542972    -0.6553207506    -0.1360366935
    5      C      -0.2401376679    -0.6666281807    -0.1747456548
    6      C      -0.9623164379    -1.9213723175    -0.4157419069
    7      C      -0.6100737439    -3.0896636550     0.1033741638
    8      C      -0.9032104472     0.5646818416    -0.0362131049
    9      C      -2.3817446787     0.7323722976    -0.0024157431
   10      O      -2.9379546177     1.6963636991    -0.4497491653
   11      O      -3.0824023861    -0.2455156448     0.6075278062
   12      C      -0.1213102406     1.7147377715     0.0963977577
   13      N       1.1897768520     1.7119853486     0.1299463908
   14      H       5.2187903329    -0.1719579257     0.0552706677
   15      H       3.8591596944    -1.3787474470    -0.0979299228
   16      H       3.6375878879     1.6716194517     0.1814826264
   17      H       1.6874801950    -1.5804299563    -0.2671390012
   18      H      -1.8218359704    -1.8534062638    -1.0715221059
   19      H       0.2270714404    -3.1858078086     0.7754254298
   20      H      -1.1573880822    -3.9910439667    -0.1112314901
   21      H      -2.5191575652    -0.9618772622     0.9332961622
   22      H      -0.6059994699     2.6776632337     0.1872939106
 ----------------------------------------------------------------

    9    -591.6415246605      7.15e-06  Convergence criterion met
 Total energy in the final basis set =     -591.6415246605

                    Orbital Energies (a.u.)
 --------------------------------------------------------------

 Alpha MOs
 -- Occupied --
-19.1969 -19.1350 -14.3379 -10.3232 -10.2447 -10.2376 -10.2350 -10.2239
-10.2197 -10.2172 -10.2133 -10.2013 -10.1995  -1.1063  -1.0238  -0.9661
 -0.8582  -0.8179  -0.7863  -0.7582  -0.6807  -0.6671  -0.6282  -0.6020
 -0.5828  -0.5566  -0.5238  -0.5057  -0.4793  -0.4643  -0.4564  -0.4516
 -0.4431  -0.4337  -0.4190  -0.4063  -0.3892  -0.3857  -0.3697  -0.3400
 -0.3188  -0.3137  -0.2820  -0.2773  -0.2633  -0.2485

          Ground-State Mulliken Net Atomic Charges

     Atom                 Charge (a.u.)
  ----------------------------------------
      1 C                    -0.341934
      2 C                    -0.089600
      3 C                     0.309489
      4 C                    -0.232610
      5 C                     0.140895
      6 C                    -0.196233
      7 C                    -0.325147
      8 C                    -0.025168
      9 C                     0.528788
     10 O                    -0.435608
     11 O                    -0.573918
     12 C                     0.027235
     13 N                    -0.483045
     14 H                     0.157470
     15 H                     0.146220
     16 H                     0.154558
     17 H                     0.140904
     18 H                     0.179501
     19 H                     0.161163
     20 H                     0.165651
     21 H                     0.415889
     22 H                     0.175501
  ----------------------------------------
  Sum of atomic charges =     0.000000

                    Cartesian Multipole Moments
 -----------------------------------------------------------------
    Charge (ESU x 10^10)
                 0.0000
    Dipole Moment (Debye)
         X       3.0737      Y      -4.7954      Z       0.7956
       Tot       5.7512
    Quadrupole Moments (Debye-Ang)
        XX     -81.4377     XY       5.4579     YY     -71.6189
        XZ      -1.3286     YZ       0.7465     ZZ     -75.1879

 Total job time:  33.82s(wall), 33.70s(cpu)
        *  Thank you very much for using Q-Chem.  Have a nice day.  *
