 Q-Chem 5.2, Q-Chem, Inc., Pleasanton, CA (2019)
 Q-Chem 5.2.1 for Intel X86 EM64T Linux

User input:
--------------------------------------------------------------
$molecule
0 1
C         3.61544097610000    0.87732284640000    0.04087062040000
C         2.84045838820000   -0.19943209290000   -0.02216455390000
C         1.38653812360000   -0.22056067220000   -0.01443913100000
C         0.70660234350000   -1.44181507450000   -0.00052920640000
C        -0.67226888350000   -1.45997525210000    0.00973164860000
C        -1.36884713100000   -0.24738119780000    0.00365101400000
C        -2.82508854190000   -0.22404296660000    0.01509350150000
C        -3.53900898030000    0.89538588570000    0.00340489640000
N        -0.72370044450000    0.92134421080000   -0.01507206540000
C         0.58843568050000    0.93016874480000   -0.02397502690000
H         4.68864709730000    0.79383945680000    0.03068398900000
H         3.21984044920000    1.87602090160000    0.10762220780000
H         3.30226066870000   -1.17858853710000   -0.08007392460000
H         1.26589042700000   -2.36809841160000    0.00428800950000
H        -1.21232771130000   -2.39534533740000    0.02175582520000
H        -3.30711815070000   -1.19310003700000    0.03375519090000
H        -3.04659019660000    1.85219305140000   -0.01553920090000
H        -4.61538895160000    0.88736698800000    0.01231803170000
H         1.03572835820000    1.91517419370000   -0.04411197900000
$end

$rem
BASIS = 6-31G*
GUI = 2
METHOD = B3LYP
PRINT_ORBITALS false
MOLDEN_FORMAT false
--------------------------------------------------------------

             Standard Nuclear Orientation (Angstroms)
    I     Atom           X                Y                Z
 ----------------------------------------------------------------
    1      C       3.6088609699    -0.8642501313    -0.0395103286
    2      C       2.8303811707     0.2100304193     0.0226438734
    3      C       1.3764003295     0.2264293372     0.0148321113
    4      C       0.6925012817     1.4454570491    -0.0000674310
    5      C      -0.6864211463     1.4591294145    -0.0104086961
    6      C      -1.3790565998     0.2442838546    -0.0034112974
    7      C      -2.8352139254     0.2162057573    -0.0149053897
    8      C      -3.5454944329    -0.9055270686    -0.0023738598
    9      N      -0.7301173593    -0.9223244087     0.0162585662
   10      C       0.5820400584    -0.9268790553     0.0252314196
   11      H       4.6817896940    -0.7772725990    -0.0293376071
   12      H       3.2165104331    -1.8642801316    -0.1054982941
   13      H       3.2889970445     1.1907270663     0.0798081155
   14      H       1.2487773863     2.3735484527    -0.0055836452
   15      H      -1.2295153065     2.3927303150    -0.0231917555
   16      H      -3.3203882783     1.1836767796    -0.0343495721
   17      H      -3.0499707712    -1.8607142811     0.0173436299
   18      H      -4.6218943235    -0.9010121381    -0.0113449399
   19      H       1.0325294014    -1.9104100645     0.0461616942
 ----------------------------------------------------------------

    9    -403.0857728378      2.82e-06  Convergence criterion met
 Total energy in the final basis set =     -403.0857728378

                    Orbital Energies (a.u.)
 --------------------------------------------------------------

 Alpha MOs
 -- Occupied --
-14.3232 -10.2240 -10.2195 -10.2041 -10.2019 -10.1970 -10.1949 -10.1856
-10.1852 -10.1773  -0.9489  -0.8272  -0.7982  -0.7719  -0.7243  -0.6459
 -0.6399  -0.5757  -0.5689  -0.5186  -0.4840  -0.4741  -0.4491  -0.4369
 -0.4271  -0.4093  -0.3963  -0.3796  -0.3662  -0.3514  -0.3314  -0.2855
 -0.2723  -0.2504  -0.2171

          Ground-State Mulliken Net Atomic Charges

     Atom                 Charge (a.u.)
  ----------------------------------------
      1 C                    -0.349162
      2 C                    -0.118817
      3 C                     0.152307
      4 C                    -0.161150
      5 C                    -0.178483
      6 C                     0.313281
      7 C                    -0.105192
      8 C                    -0.332229
      9 N                    -0.483739
     10 C                    -0.009311
     11 H                     0.147590
     12 H                     0.149051
     13 H                     0.129263
     14 H                     0.138650
     15 H                     0.134409
     16 H                     0.124190
     17 H                     0.171325
     18 H                     0.141254
     19 H                     0.136762
  ----------------------------------------
  Sum of atomic charges =     0.000000

                    Cartesian Multipole Moments
 -----------------------------------------------------------------
    Charge (ESU x 10^10)
                 0.0000
    Dipole Moment (Debye)
         X       0.8293      Y       1.4866      Z      -0.0158
       Tot       1.7024
    Quadrupole Moments (Debye-Ang)
        XX     -51.5025     XY      -1.8240     YY     -53.5729
        XZ       0.0870     YZ       0.0852     ZZ     -62.2891

 Total job time:  17.95s(wall), 17.88s(cpu)
        *  Thank you very much for using Q-Chem.  Have a nice day.  *
