 Q-Chem 5.2, Q-Chem, Inc., Pleasanton, CA (2019)
 Q-Chem 5.2.1 for Intel X86 EM64T Linux

User input:
--------------------------------------------------------------
$molecule
0 1
C         3.73856338820000    1.21045553350000   -0.00921864330000
C         2.48407714260000    1.64600023040000   -0.01027449270000
C         1.26612988690000    0.84623763720000   -0.00532334920000
C         0.04256465010000    1.51103326610000    0.00440420960000
C        -1.20447347130000    0.88707218750000    0.01037689370000
C        -2.40308494480000    1.71617773180000    0.02063791660000
C        -3.67017978030000    1.31803775360000    0.01484238300000
C        -1.19659342280000   -0.50990480540000    0.00635127980000
F        -2.32886589590000   -1.23337490360000    0.01271586700000
C         0.00432663990000   -1.19527446160000   -0.00368732770000
F         0.00917218520000   -2.55547460480000   -0.00796890660000
C         1.24475179350000   -0.56006895310000   -0.00979803590000
O         2.37227315510000   -1.30320351540000   -0.02007824490000
H         4.56059359420000    1.90642091780000   -0.01257153920000
H         3.99052834450000    0.16682992850000   -0.00472925870000
H         2.29987854230000    2.71345596180000   -0.01421119220000
H         0.06001577320000    2.59123039290000    0.00756610360000
H        -2.18938001990000    2.77794613970000    0.03324419760000
H        -3.96846656230000    0.28594462860000    0.00150346380000
H        -4.46921067990000    2.03989578090000    0.02335344030000
H         2.13609497320000   -2.24281913760000   -0.02311861160000
$end

$rem
BASIS = 6-31G*
GUI = 2
METHOD = B3LYP
PRINT_ORBITALS false
MOLDEN_FORMAT false
--------------------------------------------------------------

             Standard Nuclear Orientation (Angstroms)
    I     Atom           X                Y                Z
 ----------------------------------------------------------------
    1      C       3.6802313819     1.2401706724     0.0051751386
    2      C       2.4140719343     1.6404270369    -0.0032589630
    3      C       1.2189652594     0.8069056230    -0.0017341678
    4      C      -0.0227518773     1.4372190879     0.0000632765
    5      C      -1.2518607762     0.7786182989     0.0019320099
    6      C      -2.4732334367     1.5738766106     0.0038809595
    7      C      -3.7286506409     1.1404117323    -0.0068052628
    8      C      -1.2048834406    -0.6175966092     0.0022144833
    9      F      -2.3164911251    -1.3724536010     0.0053324777
   10      C       0.0147747454    -1.2691106940     0.0000597265
   11      F       0.0576912172    -2.6286490006    -0.0000408012
   12      C       1.2369594558    -0.5994554269    -0.0020132752
   13      O       2.3848657208    -1.3107666560    -0.0045868658
   14      H       4.4824766358     1.9588590379     0.0036574043
   15      H       3.9612683225     0.2040239477     0.0140689653
   16      H       2.2001046489     2.7022928270    -0.0113463008
   17      H      -0.0355420414     2.5174860829     0.0000074784
   18      H      -2.2893797373     2.6412428620     0.0142717221
   19      H      -3.9978786555     0.1003394465    -0.0184270660
   20      H      -4.5475950694     1.8396440501    -0.0043523455
   21      H       2.1750836701    -2.2566295840    -0.0058935728
 ----------------------------------------------------------------

    9    -660.7200579535      2.33e-06  Convergence criterion met
 Total energy in the final basis set =     -660.7200579535

                    Orbital Energies (a.u.)
 --------------------------------------------------------------

 Alpha MOs
 -- Occupied --
-24.7290 -24.7232 -19.2004 -10.2856 -10.2809 -10.2704 -10.2085 -10.2073
-10.2013 -10.1963 -10.1920 -10.1792 -10.1750  -1.2429  -1.2291  -1.0854
 -0.8823  -0.8099  -0.7904  -0.7415  -0.7324  -0.6531  -0.6438  -0.6015
 -0.5873  -0.5642  -0.5490  -0.5339  -0.4944  -0.4866  -0.4693  -0.4652
 -0.4584  -0.4376  -0.4287  -0.4187  -0.4176  -0.4013  -0.3950  -0.3831
 -0.3610  -0.3500  -0.3391  -0.3126  -0.2771  -0.2345  -0.2134

          Ground-State Mulliken Net Atomic Charges

     Atom                 Charge (a.u.)
  ----------------------------------------
      1 C                    -0.361427
      2 C                    -0.112691
      3 C                     0.183119
      4 C                    -0.326218
      5 C                     0.136286
      6 C                    -0.108802
      7 C                    -0.362038
      8 C                     0.243007
      9 F                    -0.276297
     10 C                     0.261571
     11 F                    -0.303977
     12 C                     0.230642
     13 O                    -0.641621
     14 H                     0.138075
     15 H                     0.176690
     16 H                     0.127018
     17 H                     0.139688
     18 H                     0.131297
     19 H                     0.160189
     20 H                     0.141066
     21 H                     0.424422
  ----------------------------------------
  Sum of atomic charges =     0.000000

                    Cartesian Multipole Moments
 -----------------------------------------------------------------
    Charge (ESU x 10^10)
                 0.0000
    Dipole Moment (Debye)
         X       0.5365      Y       0.3898      Z      -0.0035
       Tot       0.6632
    Quadrupole Moments (Debye-Ang)
        XX     -71.5090     XY      -4.3405     YY     -65.8247
        XZ       0.0303     YZ       0.0229     ZZ     -75.9874

 Total job time:  29.44s(wall), 28.65s(cpu)
        *  Thank you very much for using Q-Chem.  Have a nice day.  *
