 Q-Chem 5.4, Q-Chem, Inc., Pleasanton, CA (2021)
 Q-Chem 5.4.2 for Intel X86 EM64T Linux

User input:
--------------------------------------------------------------
$molecule
0 1
C            0.75915436580000       -4.19444375460000        0.02049438580000
C            1.38651876380000       -3.11986394530000       -0.43697288310000
C            0.88268698960000       -1.75160257840000       -0.30884856540000
C           -0.46285965760000       -1.50621848050000       -0.43636852020000
C           -1.01208473210000       -0.21089605290000       -0.35483473690000
C           -2.45595046460000       -0.05008330790000       -0.49862782710000
C           -3.21315618380000        0.82643875160000        0.14204598500000
F           -2.83835449750000        1.69318173820000        1.06653015390000
F           -4.53006730080000        0.91318992560000       -0.03343484430000
C           -0.14265958930000        0.84170513350000       -0.17999433520000
F           -0.60910186690000        2.10673005970000       -0.18919028250000
C            1.24852591510000        0.65889176440000       -0.03495857470000
C            2.11537310550000        1.75339833150000        0.16639939200000
C            3.45650470200000        1.55273554090000        0.33344948520000
C            3.97866146950000        0.25242232390000        0.31241024970000
C            3.15900339380000       -0.82516974240000        0.11139405850000
C            1.77293610080000       -0.66039251620000       -0.08415798920000
H            1.16145924720000       -5.18374996370000       -0.11371619370000
H           -0.16811257650000       -4.12606571570000        0.56441607880000
H            2.33160615600000       -3.23232064320000       -0.95095265040000
H           -1.13603001840000       -2.32988457140000       -0.61973377110000
H           -2.96313189480000       -0.72895071320000       -1.16754480160000
H            1.69498389830000        2.74724832470000        0.19436552460000
H            4.11781400720000        2.39152855310000        0.48993987060000
H            5.03819481560000        0.10415080220000        0.46019719640000
H            3.57748391410000       -1.81943948480000        0.11487863970000
$end

$rem
BASIS = 6-31G*
GUI = 2
METHOD = B3LYP
PRINT_ORBITALS false
MOLDEN_FORMAT false
$end
--------------------------------------------------------------

             Standard Nuclear Orientation (Angstroms)
    I     Atom           X                Y                Z
 ----------------------------------------------------------------
    1      C      -1.8245637841    -3.7330213765    -0.4463203445
    2      C      -2.1224843099    -2.5785002654     0.1332558118
    3      C      -1.2459807372    -1.4062763212     0.1390848196
    4      C       0.1118894159    -1.5714090152     0.2651416125
    5      C       1.0104318965    -0.4865710014     0.3087767598
    6      C       2.4380449504    -0.7621141950     0.4402391567
    7      C       3.4219995223    -0.0764710860    -0.1199762332
    8      F       3.3219718553     0.9540524536    -0.9411987290
    9      F       4.7064015634    -0.3895390106     0.0377388557
   10      C       0.4814550620     0.7832487110     0.2620872623
   11      F       1.2909865043     1.8533399229     0.3943924776
   12      C      -0.9019904241     1.0228876694     0.1260543108
   13      C      -1.4161802591     2.3346801588     0.0573303251
   14      C      -2.7565494054     2.5453180734    -0.1034411550
   15      C      -3.6299125301     1.4543779457    -0.2082805160
   16      C      -3.1560711015     0.1722416200    -0.1372011626
   17      C      -1.7832704171    -0.0884525387     0.0472751636
   18      H      -2.4951935573    -4.5740982263    -0.4084533037
   19      H      -0.9105762660    -3.8758791077    -0.9981978960
   20      H      -3.0658472770    -2.4693453812     0.6511007813
   21      H       0.5184340242    -2.5679257807     0.3481042357
   22      H       2.7216451753    -1.6245945607     1.0243987300
   23      H      -0.7281207058     3.1636623024     0.1252247714
   24      H      -3.1476962523     3.5499991593    -0.1583320913
   25      H      -4.6857233255     1.6322296579    -0.3499444498
   26      H      -3.8420683950    -0.6543586294    -0.2364490830
 ----------------------------------------------------------------

    9    -838.3864315796      5.18e-06  Convergence criterion met
 Total energy in the final basis set =     -838.3864315796

                    Orbital Energies (a.u.)
 --------------------------------------------------------------

 Alpha MOs
 -- Occupied --
-24.7384 -24.7334 -24.7123 -10.3574 -10.2737 -10.2117 -10.2048 -10.2043
-10.2043 -10.2011 -10.1971 -10.1951 -10.1939 -10.1936 -10.1930 -10.1926
-10.1848  -1.2836  -1.2255  -1.2209  -0.8903  -0.8459  -0.8161  -0.7885
 -0.7594  -0.7463  -0.7167  -0.6553  -0.6393  -0.6176  -0.6154  -0.5735
 -0.5681  -0.5467  -0.5411  -0.5227  -0.5154  -0.4894  -0.4792  -0.4669
 -0.4643  -0.4494  -0.4417  -0.4379  -0.4320  -0.4303  -0.4204  -0.4126
 -0.4006  -0.3896  -0.3842  -0.3705  -0.3448  -0.3417  -0.3387  -0.3067
 -0.2758  -0.2650  -0.2373  -0.2074

          Ground-State Mulliken Net Atomic Charges

     Atom                 Charge (a.u.)
  ----------------------------------------
      1 C                    -0.336228
      2 C                    -0.133072
      3 C                     0.114099
      4 C                    -0.268807
      5 C                     0.117827
      6 C                    -0.319178
      7 C                     0.567724
      8 F                    -0.228220
      9 F                    -0.247401
     10 C                     0.234438
     11 F                    -0.283704
     12 C                     0.058372
     13 C                    -0.181410
     14 C                    -0.132663
     15 C                    -0.128303
     16 C                    -0.199529
     17 C                     0.083444
     18 H                     0.144378
     19 H                     0.146511
     20 H                     0.140724
     21 H                     0.135737
     22 H                     0.168967
     23 H                     0.146565
     24 H                     0.133973
     25 H                     0.132019
     26 H                     0.133736
  ----------------------------------------
  Sum of atomic charges =     0.000000

                    Cartesian Multipole Moments
 -----------------------------------------------------------------
    Charge (ESU x 10^10)
                 0.0000
    Dipole Moment (Debye)
         X      -1.8122      Y      -1.0595      Z       0.2546
       Tot       2.1146
    Quadrupole Moments (Debye-Ang)
        XX     -90.2153     XY      -3.4980     YY     -86.2062
        XZ       1.0267     YZ      -0.4094     ZZ     -96.7462

 Total job time:  90.88s(wall), 85.73s(cpu)
        *  Thank you very much for using Q-Chem.  Have a nice day.  *
