 Q-Chem 5.2, Q-Chem, Inc., Pleasanton, CA (2019)
 Q-Chem 5.2.1 for Intel X86 EM64T Linux

User input:
--------------------------------------------------------------
$molecule
0 1
C        -3.58305848090000    1.56002203880000   -0.42264126400000
C        -2.45510248110000    1.76387101670000    0.24491872270000
C        -1.27387308960000    0.90230539270000    0.20876835220000
C        -0.04264007200000    1.51751205190000    0.22666369460000
C         1.11723154990000    0.74312634930000    0.10391369630000
N         2.38521662560000    1.15827518330000    0.08156550960000
S         3.33849746080000   -0.12603439470000   -0.08371563680000
N         2.20858417810000   -1.26900713350000   -0.13232098040000
C         1.01287986600000   -0.68686870030000   -0.02182424980000
C        -0.24527697050000   -1.30101817930000    0.00836544730000
C        -1.37628137400000   -0.52627714240000    0.12508730870000
C        -2.67856021200000   -1.18055519060000    0.24986576540000
C        -3.02615698320000   -2.29475803150000   -0.37980377050000
H        -4.39725304240000    2.26325871430000   -0.37470132680000
H        -3.72771696890000    0.70193009260000   -1.05714233780000
H        -2.33523925740000    2.67187913800000    0.82348574790000
H         0.04294299630000    2.59025699320000    0.30654267480000
H        -0.30864888530000   -2.37668958550000   -0.02704325480000
H        -3.37859545200000   -0.69836584460000    0.92015846790000
H        -2.37231529050000   -2.78054102910000   -1.08485226280000
H        -3.98958953640000   -2.75086759810000   -0.22943700810000
$end

$rem
BASIS = 6-31G*
GUI = 2
METHOD = B3LYP
PRINT_ORBITALS false
MOLDEN_FORMAT false
--------------------------------------------------------------

             Standard Nuclear Orientation (Angstroms)
    I     Atom           X                Y                Z
 ----------------------------------------------------------------
    1      C       3.4983210957     1.4943934612     0.4970558702
    2      C       2.3666326733     1.7565959932    -0.1432617274
    3      C       1.1770401821     0.9059731462    -0.1579425376
    4      C      -0.0479614707     1.5325852148    -0.1197000678
    5      C      -1.2145411789     0.7624634344    -0.0419364154
    6      N      -2.4779762884     1.1869963660     0.0223882443
    7      S      -3.4428103984    -0.0967360538     0.1038714619
    8      N      -2.3242323602    -1.2509642586     0.0592215884
    9      C      -1.1236763230    -0.6738058907    -0.0205086117
   10      C       0.1278313787    -1.2961532488    -0.1068906941
   11      C       1.2656035480    -0.5258363731    -0.1783401847
   12      C       2.5599815698    -1.1818066075    -0.3623733007
   13      C       2.9017571226    -2.3417761422     0.1820671096
   14      H       4.3191922345     2.1914578484     0.4920903069
   15      H       3.6398330392     0.5914439115     1.0667013385
   16      H       2.2509187200     2.7050598961    -0.6537636855
   17      H      -0.1232983919     2.6090649506    -0.1212965760
   18      H       0.1805352466    -2.3721333211    -0.1496450643
   19      H       3.2589333825    -0.6592406809    -1.0028726571
   20      H       2.2492659527    -2.8708728841     0.8565293898
   21      H       3.8591151465    -2.7950255349    -0.0099719141
 ----------------------------------------------------------------

   10    -893.5043812961      5.39e-06  Convergence criterion met
 Total energy in the final basis set =     -893.5043812961

                    Orbital Energies (a.u.)
 --------------------------------------------------------------

 Alpha MOs
 -- Occupied --
-88.9710 -14.3588 -14.3587 -10.2351 -10.2347 -10.2153 -10.2145 -10.2027
-10.2016 -10.2012 -10.1977 -10.1905 -10.1877  -8.0272  -5.9924  -5.9866
 -5.9849  -1.0256  -0.8871  -0.8784  -0.8051  -0.7997  -0.7435  -0.7387
 -0.6593  -0.6380  -0.6016  -0.5721  -0.5687  -0.5174  -0.4963  -0.4888
 -0.4566  -0.4547  -0.4482  -0.4446  -0.4139  -0.4022  -0.3863  -0.3704
 -0.3669  -0.3557  -0.3314  -0.3153  -0.2979  -0.2927  -0.2888  -0.2367
 -0.2306

          Ground-State Mulliken Net Atomic Charges

     Atom                 Charge (a.u.)
  ----------------------------------------
      1 C                    -0.340393
      2 C                    -0.139074
      3 C                     0.101033
      4 C                    -0.211162
      5 C                     0.257453
      6 N                    -0.564893
      7 S                     0.581262
      8 N                    -0.563143
      9 C                     0.253826
     10 C                    -0.204944
     11 C                     0.096658
     12 C                    -0.139482
     13 C                    -0.339442
     14 H                     0.149416
     15 H                     0.166118
     16 H                     0.142249
     17 H                     0.149888
     18 H                     0.152736
     19 H                     0.155130
     20 H                     0.149258
     21 H                     0.147506
  ----------------------------------------
  Sum of atomic charges =     0.000000

                    Cartesian Multipole Moments
 -----------------------------------------------------------------
    Charge (ESU x 10^10)
                 0.0000
    Dipole Moment (Debye)
         X       2.1890      Y       0.2367      Z      -0.1004
       Tot       2.2041
    Quadrupole Moments (Debye-Ang)
        XX     -75.1775     XY       0.7489     YY     -80.1075
        XZ      -0.2614     YZ      -1.5892     ZZ     -82.3345

 Total job time:  40.51s(wall), 40.37s(cpu)
        *  Thank you very much for using Q-Chem.  Have a nice day.  *
