 Q-Chem 5.2, Q-Chem, Inc., Pleasanton, CA (2019)
 Q-Chem 5.2.1 for Intel X86 EM64T Linux

User input:
--------------------------------------------------------------
$molecule
0 1
C        -3.73464932510000   -0.40823761380000   -0.09307969430000
C        -2.89634818150000    0.61960476780000   -0.03930112860000
C        -1.44705098110000    0.47465658610000    0.00341713460000
C        -0.61664609910000    1.59588011310000    0.06384122000000
C         0.74945793380000    1.40947643090000    0.11956673060000
C         1.27896672590000    0.11925779430000    0.10445456450000
C         2.71593516590000   -0.11906528800000    0.16925172040000
C         3.64305432900000    0.71119870670000   -0.29153150630000
C         0.36069068020000   -0.94634371380000    0.03210164410000
C         0.81022956670000   -2.37529319410000   -0.01614072960000
N        -0.94271903850000   -0.75896698240000   -0.01384153520000
H        -4.80245712620000   -0.27540076240000   -0.12390908490000
H        -3.35649029860000   -1.41566949420000   -0.10734982730000
H        -3.26288886140000    1.63804497870000   -0.02444317490000
H        -1.04080593000000    2.58887038810000    0.07775163310000
H         1.41180228620000    2.25980184310000    0.19658554020000
H         3.01864938430000   -1.05544665800000    0.61871221450000
H         3.39378107140000    1.63901871400000   -0.77878954430000
H         4.69237126590000    0.48266160570000   -0.21575740770000
H         1.30386593900000   -2.65321757240000    0.91446883960000
H         1.50899068020000   -2.53219317750000   -0.83571464220000
H        -0.05780467610000   -3.01289681140000   -0.15578771780000
$end

$rem
BASIS = 6-31G*
GUI = 2
METHOD = B3LYP
PRINT_ORBITALS false
MOLDEN_FORMAT false
--------------------------------------------------------------

             Standard Nuclear Orientation (Angstroms)
    I     Atom           X                Y                Z
 ----------------------------------------------------------------
    1      C       3.7515507003    -0.4011284398     0.0950665007
    2      C       2.9155468785     0.6282883819     0.0359097572
    3      C       1.4659689279     0.4863179640    -0.0072801251
    4      C       0.6380712196     1.6090669061    -0.0735049947
    5      C      -0.7283945922     1.4253996738    -0.1294462756
    6      C      -1.2607422588     0.1364261424    -0.1088243023
    7      C      -2.6981790804    -0.0990463923    -0.1736543098
    8      C      -3.6238326277     0.7353531425     0.2825828567
    9      C      -0.3448609271    -0.9308390227    -0.0308572013
   10      C      -0.7975687252    -2.3585644199     0.0235945599
   11      N       0.9589204546    -0.7461064761     0.0152481662
   12      H       4.8196229448    -0.2704888321     0.1261237691
   13      H       3.3711730065    -1.4076540132     0.1136664966
   14      H       3.2843308466     1.6458448722     0.0166622671
   15      H       1.0644176538     2.6010520294    -0.0916428340
   16      H      -1.3888132641     2.2768099221    -0.2108895790
   17      H      -3.0025970099    -1.0368181038    -0.6190469963
   18      H      -3.3729035771     1.6648542311     0.7657700423
   19      H      -4.6735890329     0.5087675554     0.2070354134
   20      H      -1.2910918401    -2.6396804119    -0.9061160039
   21      H      -1.4973071008    -2.5101674444     0.8433316063
   22      H       0.0689571018    -2.9974180890     0.1668498612
 ----------------------------------------------------------------

    9    -442.4041924844      2.97e-06  Convergence criterion met
 Total energy in the final basis set =     -442.4041924844

                    Orbital Energies (a.u.)
 --------------------------------------------------------------

 Alpha MOs
 -- Occupied --
-14.3157 -10.2236 -10.2199 -10.1995 -10.1965 -10.1946 -10.1896 -10.1849
-10.1829 -10.1751 -10.1750  -0.9463  -0.8258  -0.8027  -0.7679  -0.7403
 -0.6965  -0.6476  -0.6040  -0.5786  -0.5582  -0.5022  -0.4984  -0.4638
 -0.4459  -0.4347  -0.4281  -0.4161  -0.3985  -0.3918  -0.3846  -0.3743
 -0.3577  -0.3432  -0.3201  -0.2761  -0.2695  -0.2458  -0.2152

          Ground-State Mulliken Net Atomic Charges

     Atom                 Charge (a.u.)
  ----------------------------------------
      1 C                    -0.331607
      2 C                    -0.108271
      3 C                     0.320174
      4 C                    -0.187530
      5 C                    -0.148658
      6 C                     0.111349
      7 C                    -0.128289
      8 C                    -0.340391
      9 C                     0.254336
     10 C                    -0.522417
     11 N                    -0.545375
     12 H                     0.139855
     13 H                     0.167769
     14 H                     0.123246
     15 H                     0.131355
     16 H                     0.137302
     17 H                     0.135965
     18 H                     0.144317
     19 H                     0.145862
     20 H                     0.160706
     21 H                     0.163772
     22 H                     0.176531
  ----------------------------------------
  Sum of atomic charges =     0.000000

                    Cartesian Multipole Moments
 -----------------------------------------------------------------
    Charge (ESU x 10^10)
                 0.0000
    Dipole Moment (Debye)
         X      -1.1151      Y       0.9200      Z      -0.0978
       Tot       1.4489
    Quadrupole Moments (Debye-Ang)
        XX     -59.3745     XY       2.2325     YY     -59.5319
        XZ       0.1598     YZ       0.8173     ZZ     -67.9048

 Total job time:  24.36s(wall), 24.27s(cpu)
        *  Thank you very much for using Q-Chem.  Have a nice day.  *
