 Q-Chem 5.2, Q-Chem, Inc., Pleasanton, CA (2019)
 Q-Chem 5.2.1 for Intel X86 EM64T Linux

User input:
--------------------------------------------------------------
$molecule
0 1
C        -5.43640288080000    1.90770156920000   -0.61722740670000
C        -4.77887853270000    0.77521078860000   -0.39514387000000
C        -3.33854551910000    0.58086966420000   -0.29358973040000
C        -2.85455453790000   -0.69244230800000    0.01792776730000
C        -1.50812464450000   -0.99627068620000    0.13942162830000
C        -1.03063181100000   -2.33746060390000    0.45865902580000
C        -1.74296675890000   -3.30718501920000    1.01834520440000
C        -0.56353234650000    0.03205833230000   -0.07560628520000
O         0.74078220480000   -0.30557238220000    0.05260417820000
C         1.73373769590000    0.68010284200000   -0.14820492090000
C         3.08459454910000    0.05269241680000    0.07774682670000
C         4.16447292010000    0.39482079610000   -0.72411636020000
C         5.40805806340000   -0.16890770630000   -0.49837478270000
C         5.57987548530000   -1.08590308150000    0.52427554030000
C         4.50423996110000   -1.43440940730000    1.32344378300000
C         3.26298798040000   -0.86444053270000    1.10508363030000
C        -1.01309357680000    1.30741834990000   -0.38793712190000
C        -2.36850706770000    1.56225362320000   -0.48903094260000
F        -2.71010994910000    2.83154168030000   -0.80246010640000
H        -6.51229188670000    1.91572517690000   -0.66752698530000
H        -4.95140366980000    2.85661164970000   -0.75453263320000
H        -5.34581846350000   -0.13873298640000   -0.26180149460000
H        -3.57371633290000   -1.48475065340000    0.15846461650000
H         0.01031519100000   -2.50788000230000    0.22017300460000
H        -2.77214205060000   -3.18104974750000    1.30904808330000
H        -1.31105243230000   -4.27239948220000    1.21912195660000
H         1.59111640400000    1.50728120550000    0.56555425240000
H         1.67140265480000    1.08601815010000   -1.16711778000000
H         4.03287828350000    1.10589311630000   -1.52733028390000
H         6.24301750030000    0.10472625380000   -1.12639296260000
H         6.54945927000000   -1.52914344880000    0.69646980240000
H         4.63290369710000   -2.15059626600000    2.12156014790000
H         2.42093676230000   -1.13404618490000    1.72414328220000
H        -0.33536752660000    2.12776803250000   -0.56086328570000
$end

$rem
BASIS = 6-31G*
GUI = 2
METHOD = B3LYP
PRINT_ORBITALS false
MOLDEN_FORMAT false
--------------------------------------------------------------

             Standard Nuclear Orientation (Angstroms)
    I     Atom           X                Y                Z
 ----------------------------------------------------------------
    1      C       5.7476232611    -0.9276241609     0.1273570211
    2      C       4.8810599512     0.0626535115    -0.0532333861
    3      C       3.4258557107    -0.0069743810    -0.0400621664
    4      C       2.6970952018     1.1768318880    -0.1819235000
    5      C       1.3126318383     1.2333298075    -0.1858067542
    6      C       0.5773756066     2.4836587926    -0.3432171103
    7      C       1.0573984861     3.7032008564    -0.1350577297
    8      C       0.5889422264     0.0273238542    -0.0524832024
    9      O      -0.7608558162     0.1255197028    -0.0609502289
   10      C      -1.5407723604    -1.0458944215     0.0708059199
   11      C      -2.9961242959    -0.6569909591     0.0560711880
   12      C      -3.9313530917    -1.4483743588    -0.5960278143
   13      C      -5.2699947037    -1.0973318296    -0.5882258801
   14      C      -5.6829925083     0.0521659448     0.0631596491
   15      C      -4.7528695290     0.8477240938     0.7105210591
   16      C      -3.4159555573     0.4928837234     0.7117448097
   17      C       1.2843772581    -1.1653957410     0.0888996454
   18      C       2.6672201884    -1.1681646515     0.0955683595
   19      F       3.2557886843    -2.3768130226     0.2326040552
   20      H       6.8078563696    -0.7405111018     0.0953251988
   21      H       5.4542218066    -1.9445630436     0.3124467184
   22      H       5.2614315924     1.0620593947    -0.2293003997
   23      H       3.2481591754     2.0960848941    -0.3084115052
   24      H      -0.4557263050     2.3585520089    -0.6373900995
   25      H       2.0669312911     3.8840683529     0.1931960076
   26      H       0.4439310938     4.5761904780    -0.2766456127
   27      H      -1.3063227436    -1.5476233792     1.0233385785
   28      H      -1.3278168364    -1.7434606718    -0.7507094971
   29      H      -3.6119199971    -2.3434147292    -1.1107693355
   30      H      -5.9908484862    -1.7202708798    -1.0969069233
   31      H      -6.7270679880     0.3280471709     0.0644024376
   32      H      -5.0699611709     1.7463898059     1.2187734905
   33      H      -2.6867302363     1.1105488187     1.2134345301
   34      H       0.7815047114    -2.1130693503     0.1948410955
 ----------------------------------------------------------------

    9    -831.8525080697      2.79e-06  Convergence criterion met
 Total energy in the final basis set =     -831.8525080697

                    Orbital Energies (a.u.)
 --------------------------------------------------------------

 Alpha MOs
 -- Occupied --
-24.7093 -19.1913 -10.2736 -10.2583 -10.2556 -10.2005 -10.1974 -10.1942
-10.1937 -10.1936 -10.1928 -10.1914 -10.1905 -10.1898 -10.1891 -10.1885
-10.1849 -10.1753 -10.1723  -1.2202  -1.0846  -0.8744  -0.8636  -0.8066
 -0.7874  -0.7780  -0.7519  -0.7335  -0.7271  -0.6922  -0.6391  -0.6247
 -0.6099  -0.5916  -0.5889  -0.5543  -0.5454  -0.5305  -0.5121  -0.4925
 -0.4912  -0.4760  -0.4630  -0.4623  -0.4502  -0.4437  -0.4401  -0.4346
 -0.4249  -0.4237  -0.4041  -0.3964  -0.3903  -0.3752  -0.3669  -0.3638
 -0.3498  -0.3483  -0.3390  -0.3366  -0.3299  -0.3006  -0.2759  -0.2559
 -0.2510  -0.2325  -0.2042

          Ground-State Mulliken Net Atomic Charges

     Atom                 Charge (a.u.)
  ----------------------------------------
      1 C                    -0.363805
      2 C                    -0.108369
      3 C                     0.130264
      4 C                    -0.297726
      5 C                     0.115720
      6 C                    -0.106737
      7 C                    -0.350286
      8 C                     0.336028
      9 O                    -0.515403
     10 C                    -0.110298
     11 C                     0.128489
     12 C                    -0.178083
     13 C                    -0.128090
     14 C                    -0.123503
     15 C                    -0.131893
     16 C                    -0.157552
     17 C                    -0.277811
     18 C                     0.316871
     19 F                    -0.292185
     20 H                     0.137183
     21 H                     0.157232
     22 H                     0.127261
     23 H                     0.137314
     24 H                     0.151314
     25 H                     0.138707
     26 H                     0.142260
     27 H                     0.158606
     28 H                     0.150824
     29 H                     0.124977
     30 H                     0.131112
     31 H                     0.130372
     32 H                     0.132340
     33 H                     0.145095
     34 H                     0.149773
  ----------------------------------------
  Sum of atomic charges =     0.000000

                    Cartesian Multipole Moments
 -----------------------------------------------------------------
    Charge (ESU x 10^10)
                 0.0000
    Dipole Moment (Debye)
         X      -1.8378      Y      -0.1818      Z       0.0661
       Tot       1.8480
    Quadrupole Moments (Debye-Ang)
        XX    -100.8101     XY       5.1965     YY    -103.4942
        XZ       0.5347     YZ       2.3675     ZZ    -112.6885

 Total job time:  66.40s(wall), 65.31s(cpu)
        *  Thank you very much for using Q-Chem.  Have a nice day.  *
