 Q-Chem 5.4, Q-Chem, Inc., Pleasanton, CA (2021)
 Q-Chem 5.4.2 for Intel X86 EM64T Linux

User input:
--------------------------------------------------------------
$molecule
0 1
C            2.11165909520000       -3.75086619720000       -0.76885160200000
C            1.12269419460000       -3.24927654660000       -0.04328634110000
C            0.71415269740000       -1.84113750620000       -0.03390114560000
C           -0.62496262820000       -1.55809091620000       -0.15181951760000
C           -1.12094637790000       -0.24168312170000       -0.23588539060000
C           -2.55998989300000       -0.03891215730000       -0.37219784890000
C           -3.26318696740000        0.95204234490000        0.15301431150000
F           -2.82857380290000        1.92243966480000        0.93772990930000
F           -4.57947780350000        1.07220315520000       -0.00647758280000
C           -0.20477846560000        0.78568809950000       -0.22170430870000
F           -0.61765446730000        2.05602502860000       -0.40636853700000
C            1.17791246690000        0.56502647800000       -0.05340330150000
C            2.09039517190000        1.63939388650000        0.00794755690000
C            3.41999096790000        1.40727664600000        0.21926344480000
C            3.88294260780000        0.09644745660000        0.39929460130000
C            3.02056822120000       -0.96368650370000        0.32766174690000
C            1.64853359140000       -0.77028179400000        0.06931580890000
H            2.33825551990000       -4.80352948840000       -0.76041715710000
H            2.71401757060000       -3.13601745250000       -1.41666304610000
H            0.50252215120000       -3.91084548460000        0.54916130180000
H           -1.33521774850000       -2.37060537970000       -0.20265445360000
H           -3.11239655190000       -0.78122128730000       -0.92824782250000
H            1.71263457140000        2.64468737520000       -0.10118371780000
H            4.11591867120000        2.23113510110000        0.26804911900000
H            4.93007986940000       -0.07267635190000        0.60254619120000
H            3.38390641010000       -1.96606386830000        0.49166349310000
$end

$rem
BASIS = 6-31G*
GUI = 2
METHOD = B3LYP
PRINT_ORBITALS false
MOLDEN_FORMAT false
$end
--------------------------------------------------------------

             Standard Nuclear Orientation (Angstroms)
    I     Atom           X                Y                Z
 ----------------------------------------------------------------
    1      C      -3.2230866794    -2.7614821227     0.4112757979
    2      C      -2.1061888782    -2.5775765430    -0.2777864195
    3      C      -1.2163961466    -1.4194763252    -0.1476996250
    4      C       0.1320450203    -1.6533299119    -0.0282471689
    5      C       1.0684501511    -0.6216434815     0.1833301758
    6      C       2.4807002948    -0.9679051518     0.3105928020
    7      C       3.5042066441    -0.2484629858    -0.1220299980
    8      F       3.4644500353     0.8902300209    -0.7914594410
    9      F       4.7717350600    -0.6293669887     0.0221286134
   10      C       0.5857894634     0.6626565219     0.2958847609
   11      F       1.4261714224     1.6710850844     0.6043541773
   12      C      -0.7797848799     0.9753550526     0.1337819027
   13      C      -1.2411397977     2.3068330039     0.2042946562
   14      C      -2.5605419582     2.5942680279    -0.0028691545
   15      C      -3.4623245146     1.5659219397    -0.3099540707
   16      C      -3.0427354518     0.2646483744    -0.3677207467
   17      C      -1.6986439284    -0.0789349089    -0.1187317211
   18      H      -3.8144922472    -3.6540674839     0.2970483423
   19      H      -3.5747384879    -2.0424352346     1.1322799289
   20      H      -1.7558553981    -3.3521736755    -0.9490142257
   21      H       0.4996745751    -2.6680423773    -0.0775767026
   22      H       2.7169962866    -1.9137425725     0.7741910247
   23      H      -0.5278257774     3.0903273954     0.4105647504
   24      H      -2.9107548321     3.6141001847     0.0493944018
   25      H      -4.4957947147     1.8088487692    -0.5082881751
   26      H      -3.7405140986    -0.5155769930    -0.6285366384
 ----------------------------------------------------------------

    9    -838.3836945468      4.66e-06  Convergence criterion met
 Total energy in the final basis set =     -838.3836945468

                    Orbital Energies (a.u.)
 --------------------------------------------------------------

 Alpha MOs
 -- Occupied --
-24.7384 -24.7334 -24.7115 -10.3573 -10.2728 -10.2114 -10.2046 -10.2042
-10.2035 -10.2016 -10.1972 -10.1965 -10.1920 -10.1914 -10.1909 -10.1891
-10.1852  -1.2835  -1.2250  -1.2205  -0.8897  -0.8447  -0.8160  -0.7881
 -0.7558  -0.7465  -0.7198  -0.6560  -0.6328  -0.6219  -0.6103  -0.5760
 -0.5667  -0.5449  -0.5423  -0.5219  -0.5150  -0.4837  -0.4803  -0.4680
 -0.4644  -0.4517  -0.4395  -0.4355  -0.4343  -0.4297  -0.4159  -0.4129
 -0.4021  -0.3881  -0.3831  -0.3718  -0.3448  -0.3406  -0.3364  -0.3031
 -0.2743  -0.2670  -0.2363  -0.2063

          Ground-State Mulliken Net Atomic Charges

     Atom                 Charge (a.u.)
  ----------------------------------------
      1 C                    -0.334106
      2 C                    -0.143216
      3 C                     0.104556
      4 C                    -0.262210
      5 C                     0.117208
      6 C                    -0.318691
      7 C                     0.567741
      8 F                    -0.228139
      9 F                    -0.247468
     10 C                     0.233816
     11 F                    -0.284081
     12 C                     0.058704
     13 C                    -0.182744
     14 C                    -0.131792
     15 C                    -0.132657
     16 C                    -0.203481
     17 C                     0.090299
     18 H                     0.145497
     19 H                     0.155979
     20 H                     0.140072
     21 H                     0.132090
     22 H                     0.168408
     23 H                     0.145620
     24 H                     0.132985
     25 H                     0.130846
     26 H                     0.144760
  ----------------------------------------
  Sum of atomic charges =     0.000000

                    Cartesian Multipole Moments
 -----------------------------------------------------------------
    Charge (ESU x 10^10)
                 0.0000
    Dipole Moment (Debye)
         X      -1.8224      Y      -1.2133      Z       0.0115
       Tot       2.1893
    Quadrupole Moments (Debye-Ang)
        XX     -91.4244     XY      -2.9672     YY     -85.5644
        XZ       0.9320     YZ       0.6845     ZZ     -96.2289

 Total job time:  96.12s(wall), 88.30s(cpu)
        *  Thank you very much for using Q-Chem.  Have a nice day.  *
