 Q-Chem 5.2, Q-Chem, Inc., Pleasanton, CA (2019)
 Q-Chem 5.2.1 for Intel X86 EM64T Linux

User input:
--------------------------------------------------------------
$molecule
0 1
C        -3.86670598290000   -1.05032640620000   -0.06008705700000
C        -3.08858151170000    0.02507461230000   -0.03361527940000
C        -1.63283111420000    0.03802583120000    0.01821479260000
C        -0.84536614640000   -1.10597212380000    0.08670841000000
C         0.54435969600000   -1.08609311600000    0.14982314800000
C         1.24227120840000   -2.36972870100000    0.31495223920000
C         0.92740421370000   -3.47563887360000   -0.34298074330000
C         1.20947044940000    0.15061190450000    0.11312390110000
O         2.54438559290000    0.38489003170000    0.12551439580000
C         3.46743231770000   -0.58244093910000   -0.32478057410000
C         0.42519637820000    1.31120605600000    0.05269860360000
F         1.04631605950000    2.50423821840000    0.02321731230000
C        -0.95445558520000    1.26060643460000    0.01590863990000
F        -1.64341134710000    2.41535547380000   -0.03719790760000
H        -4.93791675470000   -0.95766756900000   -0.09848039890000
H        -3.48027367740000   -2.05481612470000   -0.04459271440000
H        -3.54457290160000    1.00590781250000   -0.05401881870000
H        -1.33010205450000   -2.06752096820000    0.12928992510000
H         2.02675722140000   -2.39068433970000    1.05854350510000
H         0.16175234170000   -3.48816770660000   -1.10076867890000
H         1.43850079170000   -4.40521766240000   -0.16194119500000
H         4.28331037760000   -0.02233007830000   -0.78462268710000
H         3.02674370370000   -1.25477830730000   -1.06268417980000
H         3.86902155770000   -1.16260489720000    0.50996015760000
$end

$rem
BASIS = 6-31G*
GUI = 2
METHOD = B3LYP
PRINT_ORBITALS false
MOLDEN_FORMAT false
--------------------------------------------------------------

             Standard Nuclear Orientation (Angstroms)
    I     Atom           X                Y                Z
 ----------------------------------------------------------------
    1      C       3.5286510640    -1.8638776281     0.0487530280
    2      C       3.0367975917    -0.6307236997     0.0399582006
    3      C       1.6287212181    -0.2617624461    -0.0170666152
    4      C       0.5864390459    -1.1774377350    -0.1103961984
    5      C      -0.7558274004    -0.8176833537    -0.1783236188
    6      C      -1.7445485914    -1.8889095457    -0.3706079478
    7      C      -1.7146162832    -3.0496628504     0.2672087704
    8      C      -1.0992423423     0.5431528166    -0.1204483060
    9      O      -2.3364477405     1.0965012723    -0.1333516003
   10      C      -3.4713935870     0.3760685979     0.2948828102
   11      C      -0.0559365564     1.4758408033    -0.0348797585
   12      F      -0.3672924409     2.7837182102     0.0151077121
   13      C       1.2692813068     1.0892254037     0.0061020801
   14      F       2.2187892579     2.0396517598     0.0838843614
   15      H       4.5897216018    -2.0363026018     0.0929250645
   16      H       2.9088692044    -2.7431568436     0.0125853129
   17      H       3.7182172238     0.2085462392     0.0808418563
   18      H       0.8221512837    -2.2273413210    -0.1695609451
   19      H      -2.5042177218    -1.7045347940    -1.1173971934
   20      H      -0.9815019159    -3.2621543003     1.0274804483
   21      H      -2.4356277756    -3.8229467165     0.0664944337
   22      H      -4.1296709734     1.1102514792     0.7623037481
   23      H      -3.2142857337    -0.3964442818     1.0214260814
   24      H      -3.9954974170    -0.0736389447    -0.5523093325
 ----------------------------------------------------------------

    9    -700.0120690939      3.06e-06  Convergence criterion met
 Total energy in the final basis set =     -700.0120690939

                    Orbital Energies (a.u.)
 --------------------------------------------------------------

 Alpha MOs
 -- Occupied --
-24.7149 -24.7061 -19.1873 -10.2773 -10.2729 -10.2644 -10.2453 -10.2076
-10.2035 -10.2030 -10.1972 -10.1934 -10.1894 -10.1815  -1.2304  -1.2142
 -1.0775  -0.8791  -0.8122  -0.7957  -0.7519  -0.7363  -0.7035  -0.6460
 -0.6308  -0.5885  -0.5650  -0.5543  -0.5390  -0.5142  -0.5047  -0.4908
 -0.4836  -0.4707  -0.4541  -0.4455  -0.4417  -0.4335  -0.4302  -0.4164
 -0.3895  -0.3772  -0.3726  -0.3702  -0.3511  -0.3452  -0.3326  -0.2964
 -0.2711  -0.2361  -0.2121

          Ground-State Mulliken Net Atomic Charges

     Atom                 Charge (a.u.)
  ----------------------------------------
      1 C                    -0.351964
      2 C                    -0.111170
      3 C                     0.117202
      4 C                    -0.267321
      5 C                     0.126948
      6 C                    -0.141174
      7 C                    -0.335859
      8 C                     0.227412
      9 O                    -0.502245
     10 C                    -0.220769
     11 C                     0.275318
     12 F                    -0.279147
     13 C                     0.230600
     14 F                    -0.278424
     15 H                     0.147233
     16 H                     0.141441
     17 H                     0.145340
     18 H                     0.138729
     19 H                     0.146428
     20 H                     0.149404
     21 H                     0.146315
     22 H                     0.170168
     23 H                     0.171446
     24 H                     0.154089
  ----------------------------------------
  Sum of atomic charges =     0.000000

                    Cartesian Multipole Moments
 -----------------------------------------------------------------
    Charge (ESU x 10^10)
                 0.0000
    Dipole Moment (Debye)
         X      -1.8385      Y      -2.8518      Z       0.3569
       Tot       3.4118
    Quadrupole Moments (Debye-Ang)
        XX     -69.0334     XY       0.8667     YY     -81.2862
        XZ      -0.4196     YZ      -0.0188     ZZ     -80.5352

 Total job time:  40.75s(wall), 39.85s(cpu)
        *  Thank you very much for using Q-Chem.  Have a nice day.  *
