 Q-Chem 5.2, Q-Chem, Inc., Pleasanton, CA (2019)
 Q-Chem 5.2.1 for Intel X86 EM64T Linux

User input:
--------------------------------------------------------------
$molecule
0 1
C         3.37521683570000    1.54098646060000    0.77636840100000
C         2.55357245100000    1.43856011450000   -0.26057179200000
C         1.18177790350000    0.93218859900000   -0.17808029780000
S        -0.08953552780000    2.08665751840000   -0.34884210350000
C        -1.30300751110000    0.86297792890000   -0.12292338440000
C        -2.69617314880000    1.22543905350000   -0.14078142380000
C        -3.14031221770000    2.46914542970000   -0.29703615260000
C        -0.73952016080000   -0.38774355060000    0.02009944720000
C        -1.63337721380000   -1.56427614160000    0.31325945280000
O        -2.63440159530000   -1.41570190710000    0.96842412400000
O        -1.31851801310000   -2.73914371360000   -0.19532857540000
C         0.69628644520000   -0.34986700240000   -0.02125949410000
C         1.58027903490000   -1.53798702990000   -0.06291467750000
O         1.23629938460000   -2.58561453720000   -0.56687493380000
O         2.80860106920000   -1.42609967160000    0.43034136020000
H         4.36249061670000    1.95513484580000    0.67050749290000
H         3.08182538180000    1.25917344670000    1.77694288300000
H         2.85436267530000    1.80441917080000   -1.23478255210000
H        -3.38406792960000    0.40540153840000    0.00156074250000
H        -2.46987307380000    3.30590541710000   -0.41981850810000
H        -4.19237948660000    2.68989083580000   -0.30417836670000
H        -0.39690029280000   -2.79434974050000   -0.55437452910000
H         3.02512500100000   -0.53170975970000    0.74383275690000
$end

$rem
BASIS = 6-31G*
GUI = 2
METHOD = B3LYP
PRINT_ORBITALS false
MOLDEN_FORMAT false
--------------------------------------------------------------

             Standard Nuclear Orientation (Angstroms)
    I     Atom           X                Y                Z
 ----------------------------------------------------------------
    1      C      -3.1438117948    -1.9259764003     0.7652263429
    2      C      -2.3148826792    -1.7538642239    -0.2565806522
    3      C      -1.0288558807    -1.0588589857    -0.1663585299
    4      S       0.3937448441    -2.0316740025    -0.2559913453
    5      C       1.4201020081    -0.6429411085    -0.0586156100
    6      C       2.8498581953    -0.8088067158    -0.0287272184
    7      C       3.4653948611    -1.9842021064    -0.1183982386
    8      C       0.6858151248     0.5222646452     0.0148423233
    9      C       1.4003153249     1.8227666081     0.2743346478
   10      O       2.3931686821     1.8421979982     0.9578765222
   11      O       0.9412168104     2.9202099548    -0.2939597874
   12      C      -0.7293099403     0.2836280041    -0.0569866986
   13      C      -1.7670217980     1.3346550329    -0.1723276614
   14      O      -1.5564362145     2.3979092957    -0.7154348501
   15      O      -2.9817748844     1.0739627202     0.2977891079
   16      H      -4.0611832542    -2.4773016457     0.6561162397
   17      H      -2.9207015113    -1.5645567773     1.7583245614
   18      H      -2.5344899557    -2.1983663530    -1.2197030300
   19      H       3.4138644533     0.1040568382     0.0916850761
   20      H       2.9204168446    -2.9103688810    -0.2181253479
   21      H       4.5376145122    -2.0567808551    -0.0918948642
   22      H       0.0314000443     2.8318085030    -0.6757444912
   23      H      -3.0818543142     0.1720649625     0.6465832102
 ----------------------------------------------------------------

    9   -1084.9221339606      8.64e-06  Convergence criterion met
 Total energy in the final basis set =    -1084.9221339606

                    Orbital Energies (a.u.)
 --------------------------------------------------------------

 Alpha MOs
 -- Occupied --
-88.9393 -19.2142 -19.1690 -19.1658 -19.1205 -10.3532 -10.3159 -10.2653
-10.2510 -10.2505 -10.2428 -10.2350 -10.2296 -10.2062 -10.1989  -8.0012
 -5.9652  -5.9614  -5.9583  -1.1336  -1.0918  -1.0493  -1.0057  -0.9275
 -0.8459  -0.8103  -0.7813  -0.7497  -0.6685  -0.6591  -0.6445  -0.6122
 -0.6013  -0.5787  -0.5471  -0.5141  -0.5100  -0.4910  -0.4788  -0.4671
 -0.4512  -0.4440  -0.4359  -0.4296  -0.4214  -0.4127  -0.4018  -0.3924
 -0.3761  -0.3573  -0.3431  -0.3306  -0.3115  -0.3059  -0.2996  -0.2848
 -0.2631  -0.2376

          Ground-State Mulliken Net Atomic Charges

     Atom                 Charge (a.u.)
  ----------------------------------------
      1 C                    -0.343179
      2 C                    -0.151250
      3 C                    -0.213854
      4 S                     0.303531
      5 C                    -0.204198
      6 C                    -0.039843
      7 C                    -0.376182
      8 C                     0.015867
      9 C                     0.560387
     10 O                    -0.461154
     11 O                    -0.589031
     12 C                     0.021832
     13 C                     0.593381
     14 O                    -0.487807
     15 O                    -0.567374
     16 H                     0.178963
     17 H                     0.182272
     18 H                     0.183690
     19 H                     0.198436
     20 H                     0.156189
     21 H                     0.162377
     22 H                     0.456405
     23 H                     0.420541
  ----------------------------------------
  Sum of atomic charges =     0.000000

                    Cartesian Multipole Moments
 -----------------------------------------------------------------
    Charge (ESU x 10^10)
                 0.0000
    Dipole Moment (Debye)
         X      -3.3581      Y      -6.5779      Z      -0.3921
       Tot       7.3959
    Quadrupole Moments (Debye-Ang)
        XX     -87.4641     XY       1.5965     YY    -100.1308
        XZ      -6.7826     YZ      -0.5810     ZZ     -92.2390

 Total job time:  43.67s(wall), 43.47s(cpu)
        *  Thank you very much for using Q-Chem.  Have a nice day.  *
