 Q-Chem 5.2, Q-Chem, Inc., Pleasanton, CA (2019)
 Q-Chem 5.2.1 for Intel X86 EM64T Linux

User input:
--------------------------------------------------------------
$molecule
0 1
C         2.61815286060000   -5.46200261510000    1.22519659940000
O         1.85323123020000   -4.28818340620000    1.36173889810000
C         2.15729597640000   -3.21864774440000    0.57952727940000
C         1.36621257440000   -2.08736529580000    0.77940492780000
C         1.56010084310000   -0.94333859030000    0.02247057520000
N         0.76078625650000    0.20272655090000    0.20302911260000
C         1.49758376880000    1.38883027900000    0.40331257710000
C         2.54125286820000    1.70746697870000   -0.46388845160000
S         2.94104830040000    0.59145996160000   -1.78252038890000
C         3.27182825630000    2.87287630040000   -0.29395898190000
C         2.97460669830000    3.72277339330000    0.75525024680000
C         1.97362219170000    3.38881473040000    1.65374553710000
C         1.24771588430000    2.22346229910000    1.48802145530000
C        -0.61676503090000    0.19002397160000    0.07848294400000
C        -1.31046478010000   -0.99300113060000   -0.20255207110000
C        -2.67974212280000   -0.99217648030000   -0.33608026350000
C        -3.42923000140000    0.18017827000000   -0.21016365670000
C        -4.87059120300000    0.10026532420000   -0.34205142380000
C        -5.76613307650000    1.07125246950000   -0.23182680210000
F        -5.55455525730000    2.35890298020000    0.02849429160000
F        -7.07923843550000    0.87248669450000   -0.37350524470000
C        -2.73007790670000    1.36820940180000    0.01425751120000
C        -1.36006998070000    1.37477699650000    0.14770408700000
C         2.61535202180000   -0.90633039240000   -0.89026463730000
C         3.40917325370000   -2.02203731540000   -1.08239638000000
C         3.17509859270000   -3.18444504000000   -0.36934076300000
H         2.20459433160000   -6.16675341380000    1.94461265270000
H         3.67256424260000   -5.28376254990000    1.45859219880000
H         2.53333517720000   -5.88223010660000    0.21801725260000
H         0.59474358440000   -2.12282078840000    1.53195352030000
H         4.06280794330000    3.10400853750000   -0.99042248830000
H         3.53533045860000    4.63601415140000    0.88096134600000
H         1.75874808740000    4.03565677870000    2.49056031510000
H         0.47665637730000    1.95226333000000    2.19336499830000
H        -0.77249206910000   -1.91718697870000   -0.33925084020000
H        -3.18463758340000   -1.92354906170000   -0.54786281470000
H        -5.28115332710000   -0.87667276590000   -0.55424117580000
H        -3.25711015360000    2.30598258430000    0.07789438010000
H        -0.85814817370000    2.31939760300000    0.28466335010000
H         4.21015606970000   -1.98078415640000   -1.80392035900000
H         3.80000198070000   -4.04321186090000   -0.55133220020000
$end

$rem
BASIS = 6-31G*
GUI = 2
METHOD = B3LYP
PRINT_ORBITALS false
MOLDEN_FORMAT false
--------------------------------------------------------------

             Standard Nuclear Orientation (Angstroms)
    I     Atom           X                Y                Z
 ----------------------------------------------------------------
    1      C      -4.1160135576    -4.4083717215    -0.9956003280
    2      O      -3.0290648881    -3.5328507952    -1.1789200829
    3      C      -2.9760881303    -2.3964736868    -0.4345697293
    4      C      -1.8783902279    -1.5715501732    -0.6797727340
    5      C      -1.6980777061    -0.3991685011     0.0360121409
    6      N      -0.5876809814     0.4379076874    -0.1904675935
    7      C      -0.9264866095     1.7861375863    -0.4298688887
    8      C      -1.8069518737     2.4395478835     0.4307402338
    9      S      -2.5094549684     1.5453912363     1.7912811292
   10      C      -2.1457169819     3.7671867176     0.2223928383
   11      C      -1.6183500480     4.4488820486    -0.8586628130
   12      C      -0.7837188752     3.7930367335    -1.7497575811
   13      C      -0.4494463808     2.4667531619    -1.5455897219
   14      C       0.7208245754     0.0051014986    -0.0729403042
   15      C       1.0209016107    -1.3242453473     0.2472770443
   16      C       2.3258500243    -1.7413433121     0.3733318938
   17      C       3.3978400277    -0.8621041687     0.2007668509
   18      C       4.7464622760    -1.3782429950     0.3277366074
   19      C       5.8956167704    -0.7349662588     0.1774045101
   20      F       6.0867185753     0.5458422426    -0.1285133969
   21      F       7.0857882310    -1.3242190018     0.3191768541
   22      C       3.0950435156     0.4755516004    -0.0630281409
   23      C       1.7916784046     0.8999052570    -0.1892668078
   24      C      -2.6755623654    -0.0084231837     0.9524465700
   25      C      -3.7711936617    -0.8179505650     1.1893562030
   26      C      -3.9182239078    -2.0187523472     0.5178741373
   27      H      -3.9514496930    -5.2296497940    -1.6910748890
   28      H      -5.0679256619    -3.9214409336    -1.2296689990
   29      H      -4.1483108249    -4.8007960777     0.0257494807
   30      H      -1.1677550432    -1.8680140995    -1.4346619002
   31      H      -2.8155564102     4.2538436185     0.9142111620
   32      H      -1.8724947670     5.4858649707    -1.0145473190
   33      H      -0.3937578443     4.3140961682    -2.6107232882
   34      H       0.1889578629     1.9478558723    -2.2447154490
   35      H       0.2267296485    -2.0324303959     0.4204402750
   36      H       2.5227101146    -2.7755059192     0.6161898097
   37      H       4.8395603916    -2.4266179139     0.5731679639
   38      H       3.8841874215     1.2024390113    -0.1636152669
   39      H       1.6029502038     1.9482146296    -0.3578507806
   40      H      -4.5086247765    -0.5078965720     1.9131890700
   41      H      -4.7741976838    -2.6364403255     0.7343828820
 ----------------------------------------------------------------

    9   -1537.0677936864      5.37e-06  Convergence criterion met
 Total energy in the final basis set =    -1537.0677936864

                    Orbital Energies (a.u.)
 --------------------------------------------------------------

 Alpha MOs
 -- Occupied --
-88.8915 -24.7331 -24.7223 -19.1852 -14.3725 -10.3426 -10.2554 -10.2462
-10.2377 -10.2351 -10.2309 -10.2237 -10.2189 -10.2012 -10.1976 -10.1957
-10.1946 -10.1943 -10.1937 -10.1927 -10.1915 -10.1893 -10.1834 -10.1808
-10.1777 -10.1775  -7.9523  -5.9173  -5.9138  -5.9074  -1.2726  -1.2122
 -1.0762  -0.9877  -0.8745  -0.8713  -0.8512  -0.8111  -0.7955  -0.7726
 -0.7644  -0.7523  -0.7432  -0.7295  -0.7100  -0.6794  -0.6507  -0.6358
 -0.6206  -0.6138  -0.6004  -0.5966  -0.5693  -0.5608  -0.5516  -0.5432
 -0.5201  -0.5069  -0.5055  -0.5013  -0.4900  -0.4787  -0.4776  -0.4641
 -0.4576  -0.4475  -0.4437  -0.4423  -0.4378  -0.4298  -0.4291  -0.4202
 -0.4123  -0.4106  -0.4088  -0.3998  -0.3897  -0.3837  -0.3793  -0.3712
 -0.3633  -0.3585  -0.3505  -0.3395  -0.3331  -0.3300  -0.3261  -0.2895
 -0.2827  -0.2573  -0.2494  -0.2457  -0.2399  -0.2077  -0.1808

          Ground-State Mulliken Net Atomic Charges

     Atom                 Charge (a.u.)
  ----------------------------------------
      1 C                    -0.217022
      2 O                    -0.505499
      3 C                     0.376398
      4 C                    -0.211535
      5 C                     0.276110
      6 N                    -0.693136
      7 C                     0.261558
      8 C                    -0.098961
      9 S                     0.164693
     10 C                    -0.177466
     11 C                    -0.110917
     12 C                    -0.146810
     13 C                    -0.142948
     14 C                     0.360759
     15 C                    -0.193990
     16 C                    -0.206978
     17 C                     0.198803
     18 C                    -0.297908
     19 C                     0.532104
     20 F                    -0.240847
     21 F                    -0.255222
     22 C                    -0.206323
     23 C                    -0.196877
     24 C                    -0.106075
     25 C                    -0.183375
     26 C                    -0.181659
     27 H                     0.172730
     28 H                     0.153348
     29 H                     0.152558
     30 H                     0.157931
     31 H                     0.146228
     32 H                     0.133864
     33 H                     0.135847
     34 H                     0.151845
     35 H                     0.149744
     36 H                     0.125451
     37 H                     0.154254
     38 H                     0.136719
     39 H                     0.149457
     40 H                     0.147962
     41 H                     0.135182
  ----------------------------------------
  Sum of atomic charges =     0.000000

                    Cartesian Multipole Moments
 -----------------------------------------------------------------
    Charge (ESU x 10^10)
                 0.0000
    Dipole Moment (Debye)
         X      -3.6842      Y      -1.1790      Z      -0.9868
       Tot       3.9921
    Quadrupole Moments (Debye-Ang)
        XX    -153.0993     XY       9.4694     YY    -131.3178
        XZ      -1.6864     YZ      -4.1982     ZZ    -154.4904

 Total job time:  140.41s(wall), 140.03s(cpu)
        *  Thank you very much for using Q-Chem.  Have a nice day.  *
