 Q-Chem 5.2, Q-Chem, Inc., Pleasanton, CA (2019)
 Q-Chem 5.2.1 for Intel X86 EM64T Linux

User input:
--------------------------------------------------------------
$molecule
0 1
C        -4.09991259290000    1.72976131540000    0.22530922350000
C        -3.39859424310000    0.76461456900000   -0.35396916580000
C        -1.96930523460000    0.53370625110000   -0.14962182580000
C        -1.11450784390000    1.62587893950000    0.01451451470000
C         0.25073518790000    1.45761562030000    0.13562373940000
C         0.77250328630000    0.17939765850000    0.06962419160000
S         2.54653883650000   -0.05339960020000    0.15105612720000
C         3.05966060710000    0.11536415670000   -1.58693381150000
O         3.13100137910000    1.02808175000000    0.89653773630000
O         2.82689351310000   -1.39989274920000    0.57068566280000
C        -0.04277867020000   -0.91714234370000   -0.09484603790000
C        -1.42675442560000   -0.76544728530000   -0.18266614570000
C        -2.24072692750000   -1.97579917320000   -0.27605645800000
C        -3.42791050060000   -2.15419024510000    0.28806497890000
H        -5.14746494280000    1.86691472300000    0.01912759280000
H        -3.66418878110000    2.40101203030000    0.94641321470000
H        -3.88458366710000    0.08091555340000   -1.03856656500000
H        -1.53515021010000    2.61982649100000    0.02607249180000
H         0.91848977170000    2.29149295880000    0.28280619380000
H         2.77856836940000    1.10378148290000   -1.92573395390000
H         2.56249397280000   -0.65644442400000   -2.15955813800000
H         4.13423182390000   -0.01104605360000   -1.62809615180000
H         0.40818595710000   -1.89777055920000   -0.11712909070000
H        -1.77354010680000   -2.79544294860000   -0.80800564240000
H        -3.90224410960000   -1.38938363000000    0.87931804370000
H        -3.95528904540000   -3.08890357830000    0.20035229550000
$end

$rem
BASIS = 6-31G*
GUI = 2
METHOD = B3LYP
PRINT_ORBITALS false
MOLDEN_FORMAT false
--------------------------------------------------------------

             Standard Nuclear Orientation (Angstroms)
    I     Atom           X                Y                Z
 ----------------------------------------------------------------
    1      C       4.0365884244    -1.7482157618     0.1600212276
    2      C       3.3350300979    -0.7600561454    -0.3787510891
    3      C       1.9078013626    -0.5323649962    -0.1571242989
    4      C       1.0503249994    -1.6271642046    -0.0282465322
    5      C      -0.3135780389    -1.4591926154     0.1074832435
    6      C      -0.8314064868    -0.1777651524     0.0921078600
    7      S      -2.6041150584     0.0574572372     0.1931158046
    8      C      -3.1283731595    -0.0451674134    -1.5467134424
    9      O      -3.1876889058    -1.0490538003     0.9016467444
   10      O      -2.8773492292     1.3883550215     0.6640570618
   11      C      -0.0134318416     0.9215355384    -0.0366965365
   12      C       1.3694621689     0.7688280426    -0.1386633454
   13      C       2.1869453996     1.9792321430    -0.1922147983
   14      C       3.3781374930     2.1328462180     0.3707464073
   15      H       5.0823960957    -1.8809430952    -0.0575968265
   16      H       3.6029905794    -2.4443464538     0.8584614161
   17      H       3.8191566681    -0.0529972971    -1.0405614186
   18      H       1.4676615178    -2.6221811383    -0.0561186380
   19      H      -0.9832445988    -2.2958377382     0.2278240591
   20      H      -2.8526969069    -1.0212345606    -1.9236255292
   21      H      -2.6320898099     0.7457555584    -2.0934359098
   22      H      -4.2027407386     0.0860748790    -1.5764950685
   23      H      -0.4612002633     1.9037355488    -0.0198470083
   24      H       1.7193082218     2.8194960983    -0.6905333049
   25      H       3.8534679093     1.3451613965     0.9303135034
   26      H       3.9081348258     3.0684973220     0.3144392277
 ----------------------------------------------------------------

    9    -974.9235384668      6.86e-06  Convergence criterion met
 Total energy in the final basis set =     -974.9235384668

                    Orbital Energies (a.u.)
 --------------------------------------------------------------

 Alpha MOs
 -- Occupied --
-89.0882 -19.1311 -19.1309 -10.2230 -10.2194 -10.2181 -10.2168 -10.2117
-10.2114 -10.2071 -10.2044 -10.2022 -10.1938 -10.1926  -8.1181  -6.0824
 -6.0817  -6.0813  -1.1107  -1.0012  -0.8928  -0.8240  -0.8050  -0.7753
 -0.7530  -0.7411  -0.6667  -0.6393  -0.6162  -0.5852  -0.5557  -0.5266
 -0.5066  -0.4911  -0.4796  -0.4744  -0.4631  -0.4512  -0.4488  -0.4400
 -0.4331  -0.4242  -0.4053  -0.3925  -0.3890  -0.3676  -0.3553  -0.3302
 -0.3148  -0.3101  -0.3079  -0.2946  -0.2859  -0.2599  -0.2389

          Ground-State Mulliken Net Atomic Charges

     Atom                 Charge (a.u.)
  ----------------------------------------
      1 C                    -0.341864
      2 C                    -0.139013
      3 C                     0.108227
      4 C                    -0.177462
      5 C                    -0.147670
      6 C                    -0.149527
      7 S                     1.073782
      8 C                    -0.625520
      9 O                    -0.521794
     10 O                    -0.522089
     11 C                    -0.215391
     12 C                     0.106926
     13 C                    -0.131743
     14 C                    -0.340030
     15 H                     0.149782
     16 H                     0.149652
     17 H                     0.155242
     18 H                     0.144478
     19 H                     0.174623
     20 H                     0.197800
     21 H                     0.197527
     22 H                     0.217005
     23 H                     0.176719
     24 H                     0.141899
     25 H                     0.167217
     26 H                     0.151224
  ----------------------------------------
  Sum of atomic charges =     0.000000

                    Cartesian Multipole Moments
 -----------------------------------------------------------------
    Charge (ESU x 10^10)
                 0.0000
    Dipole Moment (Debye)
         X       3.8655      Y      -0.5386      Z      -3.6583
       Tot       5.3493
    Quadrupole Moments (Debye-Ang)
        XX     -90.1333     XY       1.5287     YY     -85.6362
        XZ      12.3485     YZ      -1.7989     ZZ     -90.1300

 Total job time:  42.10s(wall), 41.97s(cpu)
        *  Thank you very much for using Q-Chem.  Have a nice day.  *
