 Q-Chem 5.2, Q-Chem, Inc., Pleasanton, CA (2019)
 Q-Chem 5.2.1 for Intel X86 EM64T Linux

User input:
--------------------------------------------------------------
$molecule
0 1
C        -5.91018550260000    0.02036882860000    0.02114817720000
C        -4.82607018320000   -0.74741220710000   -0.00082751030000
C        -3.44127760870000   -0.30034660160000   -0.00259666760000
C        -3.06980576340000    1.04635127600000    0.00660843740000
C        -1.74299294800000    1.41276200480000    0.00344203850000
C        -0.72001775450000    0.45678518180000   -0.00785275780000
C         0.65499092340000    0.90394184320000   -0.01052553460000
C         1.75388868140000    0.13123010470000   -0.00279088470000
C         3.08290724620000    0.67735236680000   -0.00664969840000
C         4.18341637410000   -0.06684524110000    0.00352316730000
F         4.22238990170000   -1.39595844530000    0.01889631280000
F         5.42309165880000    0.41531455010000   -0.00016035030000
C        -1.09278309730000   -0.89143184930000   -0.01715485160000
C        -2.42034625740000   -1.25581096460000   -0.01499785130000
H        -6.89774764430000   -0.40789512780000    0.02043016230000
H        -5.86491091180000    1.09564641270000    0.04118199980000
H        -4.94932703990000   -1.82378864790000   -0.01885681610000
H        -3.82806771400000    1.81388737680000    0.01522741440000
H        -1.48106106180000    2.46172211110000    0.01022348580000
H         0.78701786890000    1.97957887540000   -0.01819798780000
H         1.68391039230000   -0.94619932990000    0.00768822380000
H         3.20953387880000    1.74892631740000   -0.01866588250000
H        -0.33626182260000   -1.66058562490000   -0.02758850680000
H        -2.68262078540000   -2.30467793600000   -0.02290222290000
$end

$rem
BASIS = 6-31G*
GUI = 2
METHOD = B3LYP
PRINT_ORBITALS false
MOLDEN_FORMAT false
--------------------------------------------------------------

             Standard Nuclear Orientation (Angstroms)
    I     Atom           X                Y                Z
 ----------------------------------------------------------------
    1      C       5.7617013311    -0.0325883320     0.0203037233
    2      C       4.6811553323     0.7402327530    -0.0007815925
    3      C       3.2943036852     0.2995968514    -0.0027235303
    4      C       2.9165907840    -1.0453714281     0.0053095837
    5      C       1.5880921518    -1.4056209989     0.0020344698
    6      C       0.5695603436    -0.4448996254    -0.0082077610
    7      C      -0.8075080857    -0.8856711326    -0.0110550790
    8      C      -1.9028085255    -0.1078781191    -0.0024230115
    9      C      -3.2343465829    -0.6478263474    -0.0065550580
   10      C      -4.3313902291     0.1014580892     0.0044893370
   11      F      -4.3641957359     1.4307230887     0.0210887004
   12      F      -5.5732892524    -0.3749429451     0.0005759577
   13      C       0.9485737587     0.9015818800    -0.0163366916
   14      C       2.2778131352     1.2597973067    -0.0140729686
   15      H       6.7512391978     0.3910908882     0.0198093452
   16      H       5.7114429518    -1.1076622968     0.0393586669
   17      H       4.8094005696     1.8160420163    -0.0178443823
   18      H       3.6712858269    -1.8164239095     0.0130942885
   19      H       1.3212986675    -2.4533606886     0.0078983386
   20      H      -0.9445241849    -1.9606767143    -0.0196918548
   21      H      -1.8278316311     0.9692050677     0.0090327016
   22      H      -3.3659443072    -1.7187899521    -0.0195327607
   23      H       0.1956265731     1.6742456109    -0.0259348879
   24      H       2.5449486379     2.3074433045    -0.0210599055
 ----------------------------------------------------------------

    9    -662.9223896233      8.51e-06  Convergence criterion met
 Total energy in the final basis set =     -662.9223896233

                    Orbital Energies (a.u.)
 --------------------------------------------------------------

 Alpha MOs
 -- Occupied --
-24.7414 -24.7373 -10.3568 -10.2042 -10.2001 -10.1975 -10.1952 -10.1933
-10.1905 -10.1888 -10.1887 -10.1880 -10.1876 -10.1802  -1.2843  -1.2252
 -0.8688  -0.8299  -0.7999  -0.7598  -0.7514  -0.7152  -0.6525  -0.6270
 -0.6069  -0.5878  -0.5679  -0.5553  -0.5347  -0.5185  -0.5011  -0.4797
 -0.4615  -0.4483  -0.4412  -0.4401  -0.4300  -0.4207  -0.4170  -0.4019
 -0.3890  -0.3845  -0.3628  -0.3477  -0.3384  -0.3365  -0.3018  -0.2555
 -0.2490  -0.1982

          Ground-State Mulliken Net Atomic Charges

     Atom                 Charge (a.u.)
  ----------------------------------------
      1 C                    -0.352989
      2 C                    -0.114029
      3 C                     0.180508
      4 C                    -0.185575
      5 C                    -0.197981
      6 C                     0.186039
      7 C                    -0.200527
      8 C                    -0.107671
      9 C                    -0.225845
     10 C                     0.532434
     11 F                    -0.238215
     12 F                    -0.245063
     13 C                    -0.181692
     14 C                    -0.200309
     15 H                     0.144680
     16 H                     0.142610
     17 H                     0.126951
     18 H                     0.127759
     19 H                     0.127154
     20 H                     0.122711
     21 H                     0.142295
     22 H                     0.159030
     23 H                     0.128773
     24 H                     0.128953
  ----------------------------------------
  Sum of atomic charges =     0.000000

                    Cartesian Multipole Moments
 -----------------------------------------------------------------
    Charge (ESU x 10^10)
                 0.0000
    Dipole Moment (Debye)
         X       0.7819      Y      -0.5359      Z      -0.0094
       Tot       0.9480
    Quadrupole Moments (Debye-Ang)
        XX     -80.0867     XY       2.0064     YY     -71.8256
        XZ       0.0684     YZ      -0.0657     ZZ     -83.6882

 Total job time:  29.30s(wall), 29.20s(cpu)
        *  Thank you very much for using Q-Chem.  Have a nice day.  *
