 Q-Chem 5.2, Q-Chem, Inc., Pleasanton, CA (2019)
 Q-Chem 5.2.1 for Intel X86 EM64T Linux

User input:
--------------------------------------------------------------
$molecule
0 1
C         3.64300404130000   -0.52366389650000    0.40296734930000
C         2.70027553740000    0.21246575740000   -0.17031949410000
C         1.26481115240000   -0.06240943290000   -0.09796016600000
C         0.81155460340000   -1.37659712900000   -0.05887455500000
C        -0.54337100240000   -1.63140804550000   -0.03162045270000
F        -0.97180041060000   -2.91757010050000    0.00039623780000
C        -1.47483801320000   -0.61506301130000   -0.06228821370000
C        -1.04939149140000    0.70836854380000   -0.10143211370000
C        -2.03318151490000    1.78903528510000   -0.17743176290000
C        -3.23002779350000    1.76602500930000    0.39379208950000
C         0.33075504540000    0.99268015730000   -0.09455346770000
N         0.76709330110000    2.30293774980000   -0.09995872970000
H         4.68790514990000   -0.28780293130000    0.29563483450000
H         3.40769972100000   -1.38100910190000    1.01053949740000
H         2.98558754780000    1.07761464700000   -0.75656093570000
H         1.51085116180000   -2.19660290510000   -0.07590937850000
H        -2.52613249190000   -0.85195591590000   -0.08184179810000
H        -1.74135113930000    2.65176115880000   -0.76416037310000
H        -3.55658906530000    0.93997843230000    1.00271406140000
H        -3.92427875050000    2.58154390030000    0.28468020280000
H         0.10587043170000    2.99119421380000    0.21834244970000
H         1.70794801010000    2.45776982010000    0.22104941350000
$end

$rem
BASIS = 6-31G*
GUI = 2
METHOD = B3LYP
PRINT_ORBITALS false
MOLDEN_FORMAT false
--------------------------------------------------------------

             Standard Nuclear Orientation (Angstroms)
    I     Atom           X                Y                Z
 ----------------------------------------------------------------
    1      C       3.6222600686     0.5848991819     0.3959362347
    2      C       2.4944205387     0.9906417338    -0.1720714068
    3      C       1.2195552017     0.2754210269    -0.1047813174
    4      C       1.2050299560    -1.1149644399    -0.0787860139
    5      C       0.0001715163    -1.7852658796    -0.0562714222
    6      F       0.0003316151    -3.1411492657    -0.0370392690
    7      C      -1.2048532191    -1.1152469123    -0.0790420789
    8      C      -1.2196341005     0.2751173548    -0.1050574408
    9      C      -2.4946913099     0.9900440394    -0.1726467239
   10      C      -3.6221395477     0.5844877476     0.3962572592
   11      C      -0.0001289789     0.9810561975    -0.0931208902
   12      N      -0.0003679066     2.3620475689    -0.0855035409
   13      H       4.5388776429     1.1399750793     0.2926310516
   14      H       3.6708402544    -0.3085542336     0.9950470754
   15      H       2.4908447149     1.9071053331    -0.7496926121
   16      H       2.1276613946    -1.6716641258    -0.1022811783
   17      H      -2.1273764899    -1.6721263596    -0.1026380078
   18      H      -2.4913177172     1.9062741312    -0.7507664356
   19      H      -3.6700288518    -0.3081338632     0.9968523425
   20      H      -4.5387311729     1.1397153215     0.2935781938
   21      H      -0.8448348571     2.8029549787     0.2380772210
   22      H       0.8437151411     2.8033238474     0.2385733575
 ----------------------------------------------------------------

    9    -541.6269422626      1.48e-06  Convergence criterion met
 Total energy in the final basis set =     -541.6269422626

                    Orbital Energies (a.u.)
 --------------------------------------------------------------

 Alpha MOs
 -- Occupied --
-24.6879 -14.3451 -10.2522 -10.2293 -10.1945 -10.1944 -10.1937 -10.1937
-10.1855 -10.1855 -10.1836 -10.1836  -1.1980  -0.9320  -0.8503  -0.8104
 -0.7752  -0.7238  -0.7206  -0.6494  -0.6102  -0.5863  -0.5475  -0.5373
 -0.5292  -0.5051  -0.4681  -0.4589  -0.4569  -0.4433  -0.4341  -0.4246
 -0.4110  -0.3860  -0.3800  -0.3721  -0.3558  -0.3342  -0.3069  -0.3058
 -0.2756  -0.2269  -0.1935

          Ground-State Mulliken Net Atomic Charges

     Atom                 Charge (a.u.)
  ----------------------------------------
      1 C                    -0.335875
      2 C                    -0.153304
      3 C                     0.146147
      4 C                    -0.278449
      5 C                     0.384636
      6 F                    -0.311372
      7 C                    -0.278419
      8 C                     0.146064
      9 C                    -0.153333
     10 C                    -0.335850
     11 C                     0.183464
     12 N                    -0.815639
     13 H                     0.143643
     14 H                     0.148224
     15 H                     0.138690
     16 H                     0.141080
     17 H                     0.141094
     18 H                     0.138709
     19 H                     0.148247
     20 H                     0.143647
     21 H                     0.329298
     22 H                     0.329300
  ----------------------------------------
  Sum of atomic charges =     0.000000

                    Cartesian Multipole Moments
 -----------------------------------------------------------------
    Charge (ESU x 10^10)
                 0.0000
    Dipole Moment (Debye)
         X      -0.0011      Y       2.7990      Z       0.8760
       Tot       2.9329
    Quadrupole Moments (Debye-Ang)
        XX     -61.0951     XY      -0.0037     YY     -66.6234
        XZ      -0.0040     YZ       0.7819     ZZ     -72.3514

 Total job time:  26.90s(wall), 26.80s(cpu)
        *  Thank you very much for using Q-Chem.  Have a nice day.  *
