 Q-Chem 5.4, Q-Chem, Inc., Pleasanton, CA (2021)
 Q-Chem 5.4.2 for Intel X86 EM64T Linux

User input:
--------------------------------------------------------------
$molecule
0 1
C           -4.40617739510000        0.36075912890000       -0.64777860090000
C           -3.35436480880000        0.74079364660000        0.06233312270000
C           -2.08548821390000        0.00593491210000        0.11569335240000
C           -2.10915356270000       -1.38607305840000        0.17284265590000
C           -0.93712979240000       -2.11049581390000        0.26668393180000
C            0.27542906560000       -1.45169982360000        0.32127228630000
C            0.32555491480000       -0.06007195320000        0.26122796980000
C            1.60776490990000        0.63635444780000        0.36479257330000
C            2.77531895270000        0.18988738190000       -0.06617936240000
F            3.01986453990000       -0.94226641120000       -0.71632453020000
F            3.91904269200000        0.86009640810000        0.08030807640000
C           -0.85894169730000        0.67890020130000        0.13916871050000
C           -0.80605932710000        2.17241422500000       -0.01285875330000
H           -5.32696782250000        0.91885119910000       -0.64141016880000
H           -4.38164348920000       -0.51254464940000       -1.27835221500000
H           -3.41018949200000        1.63780187690000        0.66554698470000
H           -3.06093691400000       -1.89546674430000        0.16447366600000
H           -0.96761766500000       -3.18858967690000        0.31345950000000
H            1.18743246970000       -2.01709851450000        0.42801740140000
H            1.62362221230000        1.60243231040000        0.84578325380000
H            0.04984890020000        2.46806146900000       -0.61493463710000
H           -0.72235516970000        2.65473449860000        0.96236695090000
H           -1.70303546510000        2.54167567430000       -0.50149286790000
$end

$rem
BASIS = 6-31G*
GUI = 2
METHOD = B3LYP
PRINT_ORBITALS false
MOLDEN_FORMAT false
$end
--------------------------------------------------------------

             Standard Nuclear Orientation (Angstroms)
    I     Atom           X                Y                Z
 ----------------------------------------------------------------
    1      C      -4.2887936734    -0.3153078796     0.6167330494
    2      C      -3.2333036859    -0.6996880960    -0.0855399366
    3      C      -1.9599000944     0.0280893874    -0.1267189924
    4      C      -1.9752318723     1.4203347608    -0.1808488217
    5      C      -0.7984002033     2.1383166763    -0.2633316913
    6      C       0.4108298473     1.4727871813    -0.3094207960
    7      C       0.4525989889     0.0807654544    -0.2521765740
    8      C       1.7316694748    -0.6226775765    -0.3467515431
    9      C       2.8981196251    -0.1838076360     0.0948810140
   10      F       3.1436655494     0.9454695382     0.7496357448
   11      F       4.0392140018    -0.8601521858    -0.0436988318
   12      C      -0.7370205376    -0.6517587404    -0.1416133876
   13      C      -0.6938314049    -2.1458883456     0.0073982080
   14      H      -5.2126362782    -0.8681588453     0.6014694213
   15      H      -4.2645479515     0.5564147296     1.2495018240
   16      H      -3.2891988460    -1.5949993220    -0.6912631930
   17      H      -2.9241606014     1.9350919426    -0.1791677652
   18      H      -0.8224124095     3.2166689735    -0.3078690765
   19      H       1.3268630966     2.0332501981    -0.4073222847
   20      H       1.7460513744    -1.5877396190    -0.8298233187
   21      H       0.1553826520    -2.4477403440     0.6158408206
   22      H      -0.6047850726    -2.6264685242    -0.9682133177
   23      H      -1.5968907101    -2.5111664779     0.4877515001
 ----------------------------------------------------------------

    9    -624.8252652390      4.97e-06  Convergence criterion met
 Total energy in the final basis set =     -624.8252652390

                    Orbital Energies (a.u.)
 --------------------------------------------------------------

 Alpha MOs
 -- Occupied --
-24.7400 -24.7323 -10.3547 -10.1997 -10.1994 -10.1955 -10.1915 -10.1903
-10.1840 -10.1832 -10.1826 -10.1820 -10.1812  -1.2820  -1.2215  -0.8715
 -0.8135  -0.7863  -0.7658  -0.7221  -0.6878  -0.6437  -0.6206  -0.5889
 -0.5674  -0.5637  -0.5172  -0.5152  -0.4954  -0.4784  -0.4595  -0.4385
 -0.4360  -0.4356  -0.4246  -0.4199  -0.4132  -0.4043  -0.3931  -0.3737
 -0.3612  -0.3409  -0.3329  -0.2982  -0.2764  -0.2309  -0.2204

          Ground-State Mulliken Net Atomic Charges

     Atom                 Charge (a.u.)
  ----------------------------------------
      1 C                    -0.335345
      2 C                    -0.138271
      3 C                     0.093897
      4 C                    -0.175463
      5 C                    -0.135353
      6 C                    -0.179275
      7 C                     0.121110
      8 C                    -0.320185
      9 C                     0.554240
     10 F                    -0.235928
     11 F                    -0.249593
     12 C                     0.063738
     13 C                    -0.541312
     14 H                     0.142629
     15 H                     0.146309
     16 H                     0.138449
     17 H                     0.128324
     18 H                     0.128315
     19 H                     0.132421
     20 H                     0.165746
     21 H                     0.167169
     22 H                     0.161056
     23 H                     0.167322
  ----------------------------------------
  Sum of atomic charges =     0.000000

                    Cartesian Multipole Moments
 -----------------------------------------------------------------
    Charge (ESU x 10^10)
                 0.0000
    Dipole Moment (Debye)
         X      -1.0694      Y      -0.5773      Z      -0.3777
       Tot       1.2726
    Quadrupole Moments (Debye-Ang)
        XX     -74.1608     XY       0.4114     YY     -68.5885
        XZ      -1.5480     YZ       0.9610     ZZ     -75.8038

 Total job time:  59.77s(wall), 51.21s(cpu)
        *  Thank you very much for using Q-Chem.  Have a nice day.  *
