 Q-Chem 5.2, Q-Chem, Inc., Pleasanton, CA (2019)
 Q-Chem 5.2.1 for Intel X86 EM64T Linux

User input:
--------------------------------------------------------------
$molecule
0 1
C         0.16749850920000    3.67807983070000   -0.11357738970000
C         0.87925954410000    2.57529360190000    0.08330637250000
C         0.38415588570000    1.20252799410000    0.07766593140000
C        -0.96970119070000    0.88788469630000    0.01480315110000
C        -1.40715155720000   -0.43408498210000    0.01150819960000
C        -2.81817416510000   -0.80101144690000   -0.05104802550000
C        -3.85540597130000    0.02414949720000   -0.12106979000000
C        -0.45519009200000   -1.45289689250000    0.06694046500000
C         0.89841431650000   -1.16288519220000    0.13459662870000
C         1.91545216100000   -2.27669973780000    0.20815645390000
O         3.17793816050000   -1.93335585160000   -0.31045479030000
C         1.30970123920000    0.15998427370000    0.14431702220000
H         0.62731182230000    4.65129046490000   -0.09373923320000
H        -0.89153350650000    3.66398556190000   -0.30645649980000
H         1.94463193920000    2.66513796920000    0.25851634050000
H        -1.69480128560000    1.68367329020000   -0.02321187430000
H        -3.00201969230000   -1.86878200150000   -0.03724782810000
H        -3.75157165450000    1.09535261020000   -0.13938384190000
H        -4.86425561540000   -0.34922903040000   -0.16297751860000
H        -0.77815578900000   -2.48501832380000    0.06123234950000
H         1.51967704200000   -3.17080979560000   -0.29748011660000
H         2.09628394950000   -2.53681448830000    1.25696233940000
H         3.06686089540000   -1.64383467610000   -1.22306310020000
H         2.36618147680000    0.38060268730000    0.20569862450000
$end

$rem
BASIS = 6-31G*
GUI = 2
METHOD = B3LYP
PRINT_ORBITALS false
MOLDEN_FORMAT false
--------------------------------------------------------------

             Standard Nuclear Orientation (Angstroms)
    I     Atom           X                Y                Z
 ----------------------------------------------------------------
    1      C       1.6778042304    -3.2654477351    -0.0999852392
    2      C       0.5081291611    -2.6681692518     0.0913863854
    3      C       0.2479605772    -1.2322419378     0.0830246934
    4      C       1.2616548124    -0.2810675511     0.0232551273
    5      C       0.9770765386     1.0820011614     0.0172217503
    6      C       2.0140016171     2.1070791914    -0.0422301270
    7      C       3.3254795476     1.9133692686    -0.1066161080
    8      C      -0.3576985263     1.4859942475     0.0666807065
    9      C      -1.3835480112     0.5562614139     0.1311689236
   10      C      -2.8223454481     1.0098243547     0.1982693056
   11      O      -3.7401976365     0.0789816347    -0.3230681443
   12      C      -1.0759105287    -0.7944557929     0.1437088296
   13      H       1.7680465403    -4.3379948784    -0.0785440436
   14      H       2.5877182258    -2.7223066624    -0.2897327182
   15      H      -0.3692043823    -3.2800437232     0.2636779066
   16      H       2.2882383281    -0.6058831719    -0.0101495713
   17      H       1.6374491755     3.1230560931    -0.0311497538
   18      H       3.7729913033     0.9345481046    -0.1219600541
   19      H       4.0111566062     2.7423385641    -0.1466444157
   20      H      -0.5959352676     2.5408851852     0.0587789639
   21      H      -2.9263096548     1.9812635793    -0.3089154323
   22      H      -3.1135772139     1.1453601417     1.2457270439
   23      H      -3.4951250923    -0.1168241982    -1.2344484827
   24      H      -1.8794912982    -1.5151363243     0.2026002267
 ----------------------------------------------------------------

    8    -501.5672289126      6.63e-06  Convergence criterion met
 Total energy in the final basis set =     -501.5672289126

                    Orbital Energies (a.u.)
 --------------------------------------------------------------

 Alpha MOs
 -- Occupied --
-19.1478 -10.2356 -10.1970 -10.1959 -10.1925 -10.1915 -10.1902 -10.1877
-10.1856 -10.1841 -10.1812 -10.1806  -1.0263  -0.8697  -0.8048  -0.7905
 -0.7408  -0.7265  -0.6803  -0.6290  -0.6207  -0.5584  -0.5552  -0.5127
 -0.5037  -0.4762  -0.4699  -0.4451  -0.4415  -0.4356  -0.4237  -0.4027
 -0.3803  -0.3752  -0.3683  -0.3586  -0.3386  -0.3253  -0.3178  -0.2879
 -0.2701  -0.2290  -0.2218

          Ground-State Mulliken Net Atomic Charges

     Atom                 Charge (a.u.)
  ----------------------------------------
      1 C                    -0.351780
      2 C                    -0.114111
      3 C                     0.187642
      4 C                    -0.248822
      5 C                     0.187088
      6 C                    -0.113973
      7 C                    -0.352023
      8 C                    -0.258328
      9 C                     0.110797
     10 C                    -0.085268
     11 O                    -0.607784
     12 C                    -0.258420
     13 H                     0.144977
     14 H                     0.142901
     15 H                     0.129584
     16 H                     0.124580
     17 H                     0.126420
     18 H                     0.143587
     19 H                     0.144897
     20 H                     0.121222
     21 H                     0.129798
     22 H                     0.166246
     23 H                     0.390909
     24 H                     0.139861
  ----------------------------------------
  Sum of atomic charges =     0.000000

                    Cartesian Multipole Moments
 -----------------------------------------------------------------
    Charge (ESU x 10^10)
                 0.0000
    Dipole Moment (Debye)
         X       0.9109      Y       0.5089      Z      -0.8239
       Tot       1.3295
    Quadrupole Moments (Debye-Ang)
        XX     -73.0267     XY      -1.4851     YY     -64.1037
        XZ       2.1265     YZ       0.4608     ZZ     -72.2828

 Total job time:  25.67s(wall), 25.58s(cpu)
        *  Thank you very much for using Q-Chem.  Have a nice day.  *
