 Q-Chem 5.4, Q-Chem, Inc., Pleasanton, CA (2021)
 Q-Chem 5.4.2 for Intel X86 EM64T Linux

User input:
--------------------------------------------------------------
$molecule
0 1
C            1.57250177040000       -3.06800810160000       -0.04187448330000
C            1.21776634800000       -1.89834202240000       -0.55492101300000
C           -0.03209454010000       -1.20093884180000       -0.26027352210000
C           -1.20104071500000       -1.92459992880000       -0.02569919660000
C           -2.41555156010000       -1.30011976410000        0.17132492760000
C           -2.48160846690000        0.08170681290000        0.11956326250000
F           -3.65989457830000        0.70218515470000        0.29019878080000
C           -1.33340621640000        0.82231915320000       -0.11132908870000
F           -1.40304575220000        2.16508723540000       -0.15126489960000
C           -0.09521834350000        0.20286377700000       -0.28439856190000
C            1.06494684520000        1.07087332680000       -0.48162630460000
C            2.25076827840000        0.91921014980000        0.08475350560000
F            2.61679907910000       -0.02890287710000        0.93523042310000
F            3.26934071950000        1.74752295450000       -0.11241092750000
H            2.50112429470000       -3.53971338820000       -0.31061167890000
H            0.96776276520000       -3.58227500130000        0.68544552710000
H            1.87784810210000       -1.39474981660000       -1.24955825450000
H           -1.15490569270000       -3.00177959580000       -0.02245330710000
H           -3.31728108620000       -1.86287240850000        0.35095523690000
H            0.92299971570000        1.95669649410000       -1.08368165300000
$end

$rem
BASIS = 6-31G*
GUI = 2
METHOD = B3LYP
PRINT_ORBITALS false
MOLDEN_FORMAT false
$end
--------------------------------------------------------------

             Standard Nuclear Orientation (Angstroms)
    I     Atom           X                Y                Z
 ----------------------------------------------------------------
    1      C       1.5909616075     2.9779962375     0.0332269721
    2      C       1.2304261340     1.8087108224     0.5430882167
    3      C      -0.0266281998     1.1223523311     0.2531451134
    4      C      -1.1913943540     1.8560951569     0.0293440531
    5      C      -2.4119204015     1.2419270909    -0.1628650218
    6      C      -2.4883426109    -0.1395762913    -0.1170881188
    7      F      -3.6724483542    -0.7501455499    -0.2831205923
    8      C      -1.3444737639    -0.8900925001     0.1030840991
    9      F      -1.4242506928    -2.2324559858     0.1372391935
   10      C      -0.1004618136    -0.2810194215     0.2711658258
   11      C       1.0541710684    -1.1588622797     0.4570083674
   12      C       2.2375357327    -1.0136965684    -0.1161715935
   13      F       2.6055234687    -0.0644624621    -0.9645509211
   14      F       3.2508897672    -1.8507522778     0.0706895158
   15      H       2.5248833539     3.4412641709     0.2982521477
   16      H       0.9856466637     3.5003101828    -0.6878528206
   17      H       1.8909575954     1.2967974455     1.2311847304
   18      H      -1.1369449946     2.9328904806     0.0307963228
   19      H      -3.3103821462     1.8124504573    -0.3341639031
   20      H       0.9091714342    -2.0463737241     1.0558412789
 ----------------------------------------------------------------

    9    -783.9689670568      4.46e-06  Convergence criterion met
 Total energy in the final basis set =     -783.9689670568

                    Orbital Energies (a.u.)
 --------------------------------------------------------------

 Alpha MOs
 -- Occupied --
-24.7459 -24.7421 -24.7208 -24.7165 -10.3660 -10.2837 -10.2827 -10.2229
-10.2114 -10.2112 -10.2061 -10.2024 -10.1972 -10.1859  -1.2916  -1.2377
 -1.2308  -1.2242  -0.8893  -0.8210  -0.8021  -0.7567  -0.7357  -0.6632
 -0.6439  -0.6239  -0.5847  -0.5803  -0.5628  -0.5322  -0.5287  -0.5207
 -0.5051  -0.4892  -0.4844  -0.4556  -0.4505  -0.4470  -0.4439  -0.4407
 -0.4305  -0.4225  -0.4094  -0.3897  -0.3733  -0.3673  -0.3530  -0.2988
 -0.2927  -0.2425  -0.2303

          Ground-State Mulliken Net Atomic Charges

     Atom                 Charge (a.u.)
  ----------------------------------------
      1 C                    -0.338941
      2 C                    -0.128569
      3 C                     0.122685
      4 C                    -0.183351
      5 C                    -0.201258
      6 C                     0.325717
      7 F                    -0.282571
      8 C                     0.254391
      9 F                    -0.275927
     10 C                     0.014970
     11 C                    -0.325255
     12 C                     0.571706
     13 F                    -0.224783
     14 F                    -0.240147
     15 H                     0.147291
     16 H                     0.145175
     17 H                     0.140553
     18 H                     0.142248
     19 H                     0.155055
     20 H                     0.181011
  ----------------------------------------
  Sum of atomic charges =     0.000000

                    Cartesian Multipole Moments
 -----------------------------------------------------------------
    Charge (ESU x 10^10)
                 0.0000
    Dipole Moment (Debye)
         X       0.4219      Y       1.6624      Z       0.4856
       Tot       1.7825
    Quadrupole Moments (Debye-Ang)
        XX     -78.5755     XY      -3.1399     YY     -72.6944
        XZ       1.7478     YZ      -1.6711     ZZ     -76.2303

 Total job time:  60.28s(wall), 52.17s(cpu)
        *  Thank you very much for using Q-Chem.  Have a nice day.  *
