 Q-Chem 5.4, Q-Chem, Inc., Pleasanton, CA (2021)
 Q-Chem 5.4.2 for Intel X86 EM64T Linux

User input:
--------------------------------------------------------------
$molecule
0 1
C            1.89633714230000       -3.83052929360000       -0.36044552400000
C            1.13702640230000       -3.18926959570000        0.51575279930000
C            0.74384936690000       -1.77967177350000        0.41682698430000
C           -0.58195787440000       -1.46782072360000        0.59529631030000
C           -1.08624290260000       -0.16253823000000        0.42806862700000
C           -2.51700615420000        0.06643212650000        0.60688542650000
C           -3.26987987650000        0.90301086580000       -0.08972125160000
F           -2.90532593380000        1.65881236630000       -1.11043415450000
F           -4.57470278190000        1.05629822250000        0.12632938280000
C           -0.18748024160000        0.83275114250000        0.11826098400000
F           -0.61112601320000        2.10774152170000        0.00342988370000
C            1.19409143260000        0.58818521550000       -0.02566784030000
C            2.09808414540000        1.63369417620000       -0.30950091010000
C            3.43714966170000        1.38302477420000       -0.41072311650000
C            3.92456171040000        0.08448724330000       -0.20752683200000
C            3.06751496510000       -0.94827212740000        0.05969245890000
C            1.67529650440000       -0.73954106490000        0.13272666560000
H            2.11808198480000       -4.87875421410000       -0.25294362630000
H            2.30289700470000       -3.34116931900000       -1.22978043580000
H            0.69831003970000       -3.73110970760000        1.34477891750000
H           -1.28347701060000       -2.25482835720000        0.83169183600000
H           -3.01935936550000       -0.52313452960000        1.35897841800000
H            1.70891680600000        2.63232578070000       -0.43797399380000
H            4.12659815990000        2.18441587670000       -0.62951862460000
H            4.98824667610000       -0.09612566800000       -0.25622744920000
H            3.45653918490000       -1.93814207050000        0.23933233440000
$end

$rem
BASIS = 6-31G*
GUI = 2
METHOD = B3LYP
PRINT_ORBITALS false
MOLDEN_FORMAT false
$end
--------------------------------------------------------------

             Standard Nuclear Orientation (Angstroms)
    I     Atom           X                Y                Z
 ----------------------------------------------------------------
    1      C      -2.9838549355    -2.8304285185     0.7822745389
    2      C      -2.0510113142    -2.6178243883    -0.1342910963
    3      C      -1.1971377541    -1.4274343513    -0.2064854284
    4      C       0.1549399537    -1.6142997871    -0.3608693637
    5      C       1.0773380523    -0.5489386883    -0.3460926013
    6      C       2.4994819984    -0.8486074361    -0.4846263241
    7      C       3.4945733808    -0.2279837520     0.1290210309
    8      F       3.4128102057     0.7441140641     1.0202734836
    9      F       4.7724076872    -0.5604382021    -0.0423009724
   10      C       0.5757383013     0.7261861871    -0.2164381627
   11      F       1.4119601080     1.7833675682    -0.2533570745
   12      C      -0.8055990877     0.9896418840    -0.1079651080
   13      C      -1.2948646774     2.3095176264    -0.0110103222
   14      C      -2.6384159848     2.5467428447     0.0580666019
   15      C      -3.5426769418     1.4767782799     0.0075997228
   16      C      -3.0931008686     0.1871001052    -0.0768914061
   17      C      -1.7140331712    -0.1031747046    -0.1098719309
   18      H      -3.5525192723    -3.7445242628     0.8057853745
   19      H      -3.1967707628    -2.1132567105     1.5574124258
   20      H      -1.8259110265    -3.3889686025    -0.8609364842
   21      H       0.5429741271    -2.6182406503    -0.4553425443
   22      H       2.7679892602    -1.6747977381    -1.1256449619
   23      H      -0.5860159068     3.1235269568     0.0009839731
   24      H      -3.0101833258     3.5574336557     0.1337734969
   25      H      -4.6035863423     1.6778962032     0.0286069827
   26      H      -3.7988404649    -0.6261115284    -0.1406980985
 ----------------------------------------------------------------

    9    -838.3834914815      4.68e-06  Convergence criterion met
 Total energy in the final basis set =     -838.3834914815

                    Orbital Energies (a.u.)
 --------------------------------------------------------------

 Alpha MOs
 -- Occupied --
-24.7381 -24.7331 -24.7115 -10.3571 -10.2729 -10.2115 -10.2047 -10.2041
-10.2036 -10.2017 -10.1972 -10.1964 -10.1920 -10.1913 -10.1909 -10.1890
-10.1851  -1.2833  -1.2249  -1.2204  -0.8897  -0.8447  -0.8159  -0.7881
 -0.7558  -0.7465  -0.7198  -0.6559  -0.6328  -0.6217  -0.6103  -0.5758
 -0.5667  -0.5449  -0.5423  -0.5217  -0.5148  -0.4848  -0.4799  -0.4674
 -0.4639  -0.4518  -0.4402  -0.4360  -0.4341  -0.4295  -0.4156  -0.4119
 -0.4025  -0.3875  -0.3837  -0.3718  -0.3472  -0.3413  -0.3337  -0.3009
 -0.2753  -0.2671  -0.2369  -0.2061

          Ground-State Mulliken Net Atomic Charges

     Atom                 Charge (a.u.)
  ----------------------------------------
      1 C                    -0.333304
      2 C                    -0.143254
      3 C                     0.102671
      4 C                    -0.261201
      5 C                     0.115781
      6 C                    -0.318937
      7 C                     0.567988
      8 F                    -0.228026
      9 F                    -0.247567
     10 C                     0.234927
     11 F                    -0.284078
     12 C                     0.057822
     13 C                    -0.182902
     14 C                    -0.131825
     15 C                    -0.132401
     16 C                    -0.202893
     17 C                     0.091576
     18 H                     0.145497
     19 H                     0.155704
     20 H                     0.139936
     21 H                     0.132651
     22 H                     0.168155
     23 H                     0.145603
     24 H                     0.132971
     25 H                     0.130792
     26 H                     0.144313
  ----------------------------------------
  Sum of atomic charges =     0.000000

                    Cartesian Multipole Moments
 -----------------------------------------------------------------
    Charge (ESU x 10^10)
                 0.0000
    Dipole Moment (Debye)
         X      -1.8109      Y      -1.2014      Z      -0.3751
       Tot       2.2053
    Quadrupole Moments (Debye-Ang)
        XX     -91.5397     XY      -2.6284     YY     -85.9023
        XZ      -2.5934     YZ       1.8314     ZZ     -95.7326

 Total job time:  99.32s(wall), 87.98s(cpu)
        *  Thank you very much for using Q-Chem.  Have a nice day.  *
