 Q-Chem 5.4, Q-Chem, Inc., Pleasanton, CA (2021)
 Q-Chem 5.4.2 for Intel X86 EM64T Linux

User input:
--------------------------------------------------------------
$molecule
0 1
C            1.57283831520000       -2.58302951790000        0.50570690460000
C            0.81464460520000       -1.71266732250000       -0.14664146390000
C            0.98799712120000       -0.26970716810000       -0.11033372460000
C            2.18300427670000        0.35754549220000        0.09525930870000
S            2.07973078250000        2.06387573560000       -0.04066006350000
C            0.40648714600000        1.96236011950000       -0.39036577090000
C           -0.05569716660000        0.67723498170000       -0.38362778140000
C           -1.45827945760000        0.36775547440000       -0.61549133850000
C           -2.16460559650000       -0.55461632580000        0.01753697190000
F           -1.75590879730000       -1.35719080780000        0.99168507080000
F           -3.45203007270000       -0.79113105350000       -0.23134046200000
H            1.40683678270000       -3.64292318620000        0.42641820330000
H            2.37176080830000       -2.26887643180000        1.15554002040000
H            0.00191705760000       -2.06381564310000       -0.76909661010000
H            3.13435568070000       -0.09548696660000        0.28847341980000
H           -0.15822646370000        2.85835461800000       -0.55611090110000
H           -1.98978630550000        0.97385439800000       -1.33397214660000
$end

$rem
BASIS = 6-31G*
GUI = 2
METHOD = B3LYP
PRINT_ORBITALS false
MOLDEN_FORMAT false
$end
--------------------------------------------------------------

             Standard Nuclear Orientation (Angstroms)
    I     Atom           X                Y                Z
 ----------------------------------------------------------------
    1      C       0.1228725079     3.0258930930     0.0651124828
    2      C      -0.1221534870     1.7960595029     0.4957144446
    3      C       0.7056662154     0.6357977733     0.2093394929
    4      C       2.0494371118     0.6875584009    -0.0259414292
    5      S       2.7607679589    -0.8619168710    -0.2098903281
    6      C       1.2445609975    -1.6179219528     0.0389400073
    7      C       0.2344217498    -0.7199163431     0.2349272115
    8      C      -1.1431972686    -1.1478357156     0.4242053361
    9      C      -2.2154967366    -0.5564520725    -0.0766244069
   10      F      -2.2558299353     0.5143991451    -0.8587844253
   11      F      -3.4567964091    -0.9972852361     0.1238306268
   12      H      -0.5179597486     3.8500781034     0.3244787923
   13      H       0.9585833848     3.2499228636    -0.5757076027
   14      H      -0.9880965646     1.6028726779     1.1154749272
   15      H       2.6724914862     1.5579533300    -0.0690170521
   16      H       1.1696859997    -2.6866121826     0.0005475862
   17      H      -1.3100213405    -2.0566661545     0.9830139515
 ----------------------------------------------------------------

    9    -906.2648531622      5.43e-06  Convergence criterion met
 Total energy in the final basis set =     -906.2648531622

                    Orbital Energies (a.u.)
 --------------------------------------------------------------

 Alpha MOs
 -- Occupied --
-88.9130 -24.7399 -24.7345 -10.3572 -10.2133 -10.2118 -10.2075 -10.2057
-10.1995 -10.1920 -10.1789  -7.9747  -5.9385  -5.9349  -5.9321  -1.2835
 -1.2231  -0.8955  -0.8106  -0.7927  -0.7278  -0.7148  -0.6371  -0.6088
 -0.5812  -0.5644  -0.5537  -0.5186  -0.5067  -0.4861  -0.4570  -0.4408
 -0.4384  -0.4259  -0.4148  -0.4005  -0.3884  -0.3843  -0.3706  -0.3448
 -0.2987  -0.2893  -0.2247  -0.2225

          Ground-State Mulliken Net Atomic Charges

     Atom                 Charge (a.u.)
  ----------------------------------------
      1 C                    -0.347045
      2 C                    -0.099693
      3 C                     0.150792
      4 C                    -0.413603
      5 S                     0.274331
      6 C                    -0.403641
      7 C                     0.142609
      8 C                    -0.323048
      9 C                     0.560871
     10 F                    -0.229617
     11 F                    -0.247559
     12 H                     0.143991
     13 H                     0.140288
     14 H                     0.133873
     15 H                     0.175257
     16 H                     0.173131
     17 H                     0.169063
  ----------------------------------------
  Sum of atomic charges =     0.000000

                    Cartesian Multipole Moments
 -----------------------------------------------------------------
    Charge (ESU x 10^10)
                 0.0000
    Dipole Moment (Debye)
         X       0.5525      Y      -0.3803      Z       0.4411
       Tot       0.8028
    Quadrupole Moments (Debye-Ang)
        XX     -69.9063     XY       1.2057     YY     -61.5576
        XZ      -2.1520     YZ      -0.6683     ZZ     -70.4670

 Total job time:  35.90s(wall), 33.26s(cpu)
        *  Thank you very much for using Q-Chem.  Have a nice day.  *
