 Q-Chem 5.2, Q-Chem, Inc., Pleasanton, CA (2019)
 Q-Chem 5.2.1 for Intel X86 EM64T Linux

User input:
--------------------------------------------------------------
$molecule
0 1
C         4.38526343490000    1.61624766710000   -0.03577725710000
C         3.06553573180000    1.75106036410000    0.00711629010000
C         2.07823741320000    0.67700111130000    0.00923435500000
C         2.42293784390000   -0.67577590910000    0.01493989100000
C         1.44085227040000   -1.64779622870000    0.01588976770000
C         0.10084985190000   -1.30545787830000    0.01104502090000
C        -0.27343959600000    0.03925679110000    0.00647207610000
C        -1.65793020210000    0.48740965420000    0.00222961290000
C        -2.76230155690000   -0.24356339750000   -0.00546907610000
F        -2.87153648260000   -1.56668830940000   -0.01112113480000
F        -3.98474781180000    0.28745570910000   -0.00899133870000
C         0.72622247050000    1.01053799330000    0.00673796700000
H         5.03442154230000    2.47492736200000   -0.03498562620000
H         4.87464608630000    0.65841837770000   -0.07548488340000
H         2.64287254110000    2.74802251540000    0.04079652740000
H         3.46047353110000   -0.96981734320000    0.02117710160000
H         1.72128045140000   -2.69082574600000    0.02095564750000
H        -0.64436767250000   -2.08329594160000    0.01193490360000
H        -1.81833953790000    1.55615481800000    0.00497218450000
H         0.44377751320000    2.05433985760000    0.00341561360000
$end

$rem
BASIS = 6-31G*
GUI = 2
METHOD = B3LYP
PRINT_ORBITALS false
MOLDEN_FORMAT false
--------------------------------------------------------------

             Standard Nuclear Orientation (Angstroms)
    I     Atom           X                Y                Z
 ----------------------------------------------------------------
    1      C       4.4936592574     0.6599344517    -0.0325060659
    2      C       3.2315274267     1.0682744097     0.0119602200
    3      C       2.0409756406     0.2250961168     0.0103646856
    4      C       2.0943755671    -1.1698967215     0.0101750691
    5      C       0.9303153837    -1.9143931135     0.0078320853
    6      C      -0.3081225608    -1.2986892610     0.0054398537
    7      C      -0.3921443794     0.0946196277     0.0067511818
    8      C      -1.6518954923     0.8231102789     0.0054357833
    9      C      -2.8849816605     0.3399772075    -0.0044585867
   10      F      -3.2692084531    -0.9307984809    -0.0155341905
   11      F      -3.9689157973     1.1155126296    -0.0048331268
   12      C       0.7889464863     0.8347029414     0.0102933680
   13      H       5.3084278439     1.3634078928    -0.0286380655
   14      H       4.7713399960    -0.3790363463    -0.0765754563
   15      H       3.0272888696     2.1315443487     0.0501140004
   16      H       3.0471962817    -1.6749654962     0.0143927169
   17      H       0.9858167811    -2.9930476167     0.0083413919
   18      H      -1.1998654377    -1.9029851235     0.0036635054
   19      H      -1.5846549599     1.9017112788     0.0127498650
   20      H       0.7316348657     1.9145280972     0.0115323334
 ----------------------------------------------------------------

    9    -585.5157470490      4.52e-06  Convergence criterion met
 Total energy in the final basis set =     -585.5157470490

                    Orbital Energies (a.u.)
 --------------------------------------------------------------

 Alpha MOs
 -- Occupied --
-24.7450 -24.7342 -10.3571 -10.2066 -10.2033 -10.1976 -10.1922 -10.1905
-10.1898 -10.1877 -10.1876 -10.1818  -1.2858  -1.2247  -0.8715  -0.8154
 -0.7854  -0.7454  -0.7258  -0.6487  -0.6257  -0.6094  -0.5767  -0.5649
 -0.5211  -0.5193  -0.5041  -0.4738  -0.4646  -0.4448  -0.4412  -0.4315
 -0.4251  -0.4101  -0.4084  -0.3854  -0.3718  -0.3515  -0.3409  -0.3192
 -0.2861  -0.2348  -0.2181

          Ground-State Mulliken Net Atomic Charges

     Atom                 Charge (a.u.)
  ----------------------------------------
      1 C                    -0.354216
      2 C                    -0.108290
      3 C                     0.178314
      4 C                    -0.180058
      5 C                    -0.131478
      6 C                    -0.191269
      7 C                     0.196749
      8 C                    -0.293299
      9 C                     0.541653
     10 F                    -0.234026
     11 F                    -0.248790
     12 C                    -0.274027
     13 H                     0.145412
     14 H                     0.144000
     15 H                     0.126763
     16 H                     0.126839
     17 H                     0.131732
     18 H                     0.138584
     19 H                     0.159426
     20 H                     0.125980
  ----------------------------------------
  Sum of atomic charges =     0.000000

                    Cartesian Multipole Moments
 -----------------------------------------------------------------
    Charge (ESU x 10^10)
                 0.0000
    Dipole Moment (Debye)
         X       0.9924      Y       0.2029      Z       0.0069
       Tot       1.0130
    Quadrupole Moments (Debye-Ang)
        XX     -67.1158     XY      -0.2477     YY     -61.1278
        XZ      -0.0719     YZ       0.0902     ZZ     -70.8680

 Total job time:  22.70s(wall), 22.62s(cpu)
        *  Thank you very much for using Q-Chem.  Have a nice day.  *
