 Q-Chem 5.2, Q-Chem, Inc., Pleasanton, CA (2019)
 Q-Chem 5.2.1 for Intel X86 EM64T Linux

User input:
--------------------------------------------------------------
$molecule
0 1
C        -2.69568241870000    0.37587343720000    3.31543929110000
C        -3.30355942030000    0.16353781390000    2.15059690470000
C        -2.64011923000000   -0.13540267530000    0.91012727230000
C        -1.30600905780000   -0.29639971850000    0.63704894870000
C        -1.01124323340000   -0.57320861760000   -0.71162165100000
C         0.39514782560000   -0.77149079390000   -1.18192350850000
C         1.01866298100000    0.53626401920000   -1.69229561250000
C         1.21009185410000    1.59511587130000   -0.60521235910000
C         2.21418850950000    1.22533257950000    0.48818797050000
C         3.63885743370000    1.05115257840000   -0.03464520110000
C         4.67135968040000    0.88806456300000    1.08135469520000
C         4.52031525630000   -0.41715522390000    1.86052995680000
C         5.64760614710000   -0.60284907790000    2.86891593750000
C        -2.14572798430000   -0.63020666390000   -1.49639113650000
C        -2.36957053990000   -0.90811602580000   -2.89157039900000
C        -1.48644973960000   -0.93808118050000   -3.88735802830000
S        -3.57381148150000   -0.34587542590000   -0.53603002290000
H        -3.25660620410000    0.59473325020000    4.20664893970000
H        -1.62514982300000    0.33911418410000    3.41887069990000
H        -4.38318101290000    0.21346484760000    2.09042612430000
H        -0.54555650470000   -0.22628817280000    1.39421169570000
H         0.41267391880000   -1.51661039040000   -1.97914191670000
H         0.99287676030000   -1.15860120530000   -0.35535561940000
H         0.36775326740000    0.95872708420000   -2.46135903400000
H         1.97975232570000    0.31149462730000   -2.15789797060000
H         0.24239524340000    1.79894548730000   -0.14048185680000
H         1.54336101490000    2.51917890620000   -1.08480889200000
H         1.89412501450000    0.31082793770000    0.98767063000000
H         2.21085822280000    2.02339647990000    1.23536694020000
H         3.90247364430000    1.92889841830000   -0.63045399160000
H         3.69017380600000    0.17821207330000   -0.68814670220000
H         4.59609183170000    1.73155436500000    1.77197696540000
H         5.67028727100000    0.91441488640000    0.63820596140000
H         4.51964966320000   -1.25606590390000    1.16022272290000
H         3.56611077740000   -0.42329148630000    2.39007801890000
H         6.61118520690000   -0.63025114550000    2.36443104760000
H         5.52175571250000   -1.53301090270000    3.41849874720000
H         5.65946277160000    0.21840345800000    3.58240979660000
H        -3.41095879570000   -1.09840758750000   -3.12549564490000
H        -0.44096956540000   -0.72766378310000   -3.76359832720000
H        -1.80603077990000   -1.17173223350000   -4.88860679030000
$end

$rem
BASIS = 6-31G*
GUI = 2
METHOD = B3LYP
PRINT_ORBITALS false
MOLDEN_FORMAT false
--------------------------------------------------------------

             Standard Nuclear Orientation (Angstroms)
    I     Atom           X                Y                Z
 ----------------------------------------------------------------
    1      C      -1.7748529260    -3.9690024150     0.2733326729
    2      C      -2.6965742174    -3.0112435361     0.2056093981
    3      C      -2.4303576392    -1.6178989965    -0.0310400021
    4      C      -1.2434708211    -0.9708771878    -0.2612664786
    5      C      -1.3578294099     0.4209427021    -0.4406597659
    6      C      -0.1594514484     1.2795046584    -0.6959969902
    7      C       0.4166398289     1.8608876030     0.6038438449
    8      C       0.9959646580     0.8068589227     1.5488139722
    9      C       2.2238911503     0.0658136854     1.0163456232
   10      C       3.4275150837     0.9782929454     0.7882102058
   11      C       4.7077805141     0.2105236371     0.4572040491
   12      C       4.6580507890    -0.4954706440    -0.8965412105
   13      C       5.9973494426    -1.1320984380    -1.2473879213
   14      C      -2.6647161958     0.8567841920    -0.3497933966
   15      C      -3.2882936093     2.1472930860    -0.4898015447
   16      C      -2.7198699060     3.3511422386    -0.4957153050
   17      S      -3.7411274512    -0.4825644700    -0.0497197933
   18      H      -2.0463968727    -4.9940150877     0.4533400460
   19      H      -0.7252348917    -3.7645136342     0.1526029825
   20      H      -3.7417808065    -3.2605453594     0.3363297169
   21      H      -0.3009367744    -1.4863504942    -0.3104191083
   22      H      -0.4303011795     2.0949253732    -1.3688989507
   23      H       0.6045628072     0.6807180509    -1.1940789526
   24      H      -0.3792081875     2.3874134560     1.1358339799
   25      H       1.1877198482     2.5913372929     0.3530881502
   26      H       0.2164031048     0.0767098247     1.7792998978
   27      H       1.2676011037     1.3013859177     2.4850993737
   28      H       1.9712403348    -0.4446438185     0.0869140711
   29      H       2.4994081522    -0.7010489610     1.7451841211
   30      H       3.5962720325     1.5674280453     1.6933954393
   31      H       3.2168384994     1.6736962078    -0.0264997959
   32      H       4.9030510194    -0.5252990138     1.2411261571
   33      H       5.5442563779     0.9142323895     0.4514081782
   34      H       4.3878647449     0.2279715089    -1.6697376583
   35      H       3.8900013469    -1.2706038713    -0.8812596603
   36      H       6.7781944293    -0.3762041793    -1.2988219413
   37      H       5.9429163163    -1.6348941238    -2.2103594421
   38      H       6.2802562953    -1.8639011794    -0.4936649917
   39      H      -4.3667266965     2.0903186459    -0.5854957867
   40      H      -1.6659899501     3.5134799369    -0.3707983344
   41      H      -3.3226235959     4.2347198712    -0.6190137062
 ----------------------------------------------------------------

    8   -1022.3064898387      8.65e-06  Convergence criterion met
 Total energy in the final basis set =    -1022.3064898387

                    Orbital Energies (a.u.)
 --------------------------------------------------------------

 Alpha MOs
 -- Occupied --
-88.9012 -10.2160 -10.2141 -10.1979 -10.1974 -10.1929 -10.1846 -10.1843
-10.1819 -10.1794 -10.1779 -10.1748 -10.1736 -10.1731 -10.1728 -10.1721
-10.1679  -7.9632  -5.9270  -5.9236  -5.9203  -0.8894  -0.8177  -0.8058
 -0.7923  -0.7711  -0.7594  -0.7282  -0.7062  -0.6891  -0.6482  -0.6149
 -0.6132  -0.5974  -0.5784  -0.5541  -0.5346  -0.5086  -0.4879  -0.4760
 -0.4709  -0.4572  -0.4556  -0.4389  -0.4313  -0.4238  -0.4212  -0.4075
 -0.4046  -0.3900  -0.3846  -0.3785  -0.3707  -0.3649  -0.3575  -0.3505
 -0.3445  -0.3420  -0.3312  -0.3288  -0.3255  -0.3172  -0.3110  -0.3058
 -0.3031  -0.2692  -0.2448  -0.1965

          Ground-State Mulliken Net Atomic Charges

     Atom                 Charge (a.u.)
  ----------------------------------------
      1 C                    -0.342072
      2 C                    -0.088225
      3 C                    -0.129274
      4 C                    -0.164914
      5 C                     0.181994
      6 C                    -0.362642
      7 C                    -0.262475
      8 C                    -0.266220
      9 C                    -0.264652
     10 C                    -0.255863
     11 C                    -0.247954
     12 C                    -0.251831
     13 C                    -0.440846
     14 C                    -0.196835
     15 C                    -0.091621
     16 C                    -0.355261
     17 S                     0.225913
     18 H                     0.146510
     19 H                     0.142290
     20 H                     0.136711
     21 H                     0.138794
     22 H                     0.150139
     23 H                     0.147024
     24 H                     0.146006
     25 H                     0.135999
     26 H                     0.144031
     27 H                     0.129317
     28 H                     0.134532
     29 H                     0.128901
     30 H                     0.127195
     31 H                     0.131021
     32 H                     0.126924
     33 H                     0.126070
     34 H                     0.128988
     35 H                     0.134623
     36 H                     0.142090
     37 H                     0.141105
     38 H                     0.142170
     39 H                     0.135981
     40 H                     0.152736
     41 H                     0.143623
  ----------------------------------------
  Sum of atomic charges =     0.000000

                    Cartesian Multipole Moments
 -----------------------------------------------------------------
    Charge (ESU x 10^10)
                -0.0000
    Dipole Moment (Debye)
         X       0.9064      Y       0.0760      Z       0.0082
       Tot       0.9097
    Quadrupole Moments (Debye-Ang)
        XX    -112.7457     XY       0.1281     YY    -106.8531
        XZ      -0.0569     YZ      -1.4918     ZZ    -116.8510

 Total job time:  73.49s(wall), 72.54s(cpu)
        *  Thank you very much for using Q-Chem.  Have a nice day.  *
