 Q-Chem 5.2, Q-Chem, Inc., Pleasanton, CA (2019)
 Q-Chem 5.2.1 for Intel X86 EM64T Linux

User input:
--------------------------------------------------------------
$molecule
0 1
C        -7.28060400370000   -1.08301007140000   -0.50636863720000
C        -6.37001538990000   -0.24008025850000   -0.02332025020000
C        -4.94684594750000   -0.39575885180000   -0.14629914970000
C        -4.21218976220000   -1.38629106590000   -0.75323588380000
C        -2.83076370880000   -1.19279863930000   -0.66570023300000
C        -2.48002005280000   -0.04713582150000    0.01150502140000
C        -1.17621444110000    0.45122281580000    0.28273622610000
C        -0.82397004260000    1.59934613240000    0.95484447030000
C         0.55609132760000    1.79166163840000    1.04337583980000
C         1.28893849080000    0.79291499160000    0.44025929820000
C         2.70540739650000    0.67783201300000    0.34741421440000
C         3.65947375000000    1.54466469910000    0.83285525570000
C         4.96732393780000    1.12786594230000    0.56821195110000
C         5.04219245760000   -0.05912203690000   -0.12079606750000
C         6.23208851820000   -0.74445294930000   -0.53795446910000
C         6.25661662190000   -1.89460439190000   -1.20700578540000
S         3.44998945400000   -0.67612604860000   -0.45034668040000
S         0.23890267450000   -0.41051712660000   -0.25173882480000
S        -3.89662929310000    0.80589167480000    0.54952489820000
H        -8.33275316250000   -0.90180820550000   -0.37677416850000
H        -7.00913694880000   -1.97455441090000   -1.04421224930000
H        -6.68800291470000    0.64577063290000    0.51125771330000
H        -4.65892698220000   -2.22933652480000   -1.24804147960000
H        -2.09839097500000   -1.86282931900000   -1.08104778890000
H        -1.55431354200000    2.27360372700000    1.36651127380000
H         1.00726891010000    2.63477730130000    1.53378211770000
H         3.41767448660000    2.44912609880000    1.36073027900000
H         5.83972874210000    1.67938021140000    0.87233635180000
H         7.15573340890000   -0.24962965070000   -0.26457395750000
H         5.34663896660000   -2.39975001750000   -1.48641187140000
H         7.18106903420000   -2.36311420570000   -1.49378371420000
$end

$rem
BASIS = 6-31G*
GUI = 2
METHOD = B3LYP
PRINT_ORBITALS false
MOLDEN_FORMAT false
--------------------------------------------------------------

             Standard Nuclear Orientation (Angstroms)
    I     Atom           X                Y                Z
 ----------------------------------------------------------------
    1      C       7.2866215181    -1.1417820078    -0.0032708901
    2      C       6.3706490246    -0.1753355484    -0.0069681344
    3      C       4.9483353287    -0.3796781749    -0.0007442087
    4      C       4.2198385052    -1.5451849742     0.0107560503
    5      C       2.8370897807    -1.3416117667     0.0126703391
    6      C       2.4791244336    -0.0127258313     0.0029573569
    7      C       1.1720879211     0.5471768510     0.0018118707
    8      C       0.8125409378     1.8755977032    -0.0022825779
    9      C      -0.5688189058     2.0786671362    -0.0018022274
   10      C      -1.2953681303     0.9080181725     0.0022745325
   11      C      -2.7111782332     0.7539744821     0.0031441823
   12      C      -3.6708919173     1.7420088050     0.0088308805
   13      C      -4.9761180328     1.2413989069     0.0068525971
   14      C      -5.0433234195    -0.1314476493    -0.0004670178
   15      C      -6.2288450640    -0.9401936623    -0.0049994897
   16      C      -6.2459680995    -2.2708926886    -0.0101507619
   17      S      -3.4470550802    -0.8216047698    -0.0047681487
   18      S      -0.2376382197    -0.4743276181     0.0058845667
   19      S       3.8904846640     1.0030658474    -0.0085579677
   20      H       8.3377147709    -0.9141215739    -0.0077870272
   21      H       7.0207339302    -2.1843974340     0.0055770469
   22      H       6.6830883721     0.8609730527    -0.0151903157
   23      H       4.6719014859    -2.5202356100     0.0176615688
   24      H       2.1088649616    -2.1337242264     0.0210958453
   25      H       1.5386482117     2.6694823536    -0.0054252930
   26      H      -1.0253665225     3.0515278427    -0.0049437063
   27      H      -3.4349262705     2.7905579943     0.0146754234
   28      H      -5.8521300346     1.8661697137     0.0106201292
   29      H      -7.1557035797    -0.3801584297    -0.0041537321
   30      H      -5.3327088900    -2.8429553265    -0.0112239022
   31      H      -7.1674321435    -2.8251922266    -0.0135162505
 ----------------------------------------------------------------

    9   -1811.4303898367      6.10e-06  Convergence criterion met
 Total energy in the final basis set =    -1811.4303898367

                    Orbital Energies (a.u.)
 --------------------------------------------------------------

 Alpha MOs
 -- Occupied --
-88.9108 -88.9093 -88.9067 -10.2296 -10.2290 -10.2289 -10.2279 -10.2216
-10.2198 -10.2012 -10.1993 -10.1964 -10.1954 -10.1946 -10.1941 -10.1934
-10.1929 -10.1845 -10.1824  -7.9726  -7.9711  -7.9687  -5.9367  -5.9351
 -5.9332  -5.9328  -5.9316  -5.9293  -5.9292  -5.9280  -5.9255  -0.9081
 -0.8944  -0.8778  -0.8076  -0.7951  -0.7665  -0.7537  -0.7447  -0.7322
 -0.7208  -0.6862  -0.6287  -0.6184  -0.5888  -0.5859  -0.5463  -0.5373
 -0.5320  -0.5264  -0.5165  -0.4954  -0.4655  -0.4577  -0.4446  -0.4277
 -0.4214  -0.4166  -0.4157  -0.4005  -0.3988  -0.3920  -0.3823  -0.3749
 -0.3733  -0.3663  -0.3651  -0.3555  -0.3447  -0.3328  -0.3235  -0.3002
 -0.2657  -0.2615  -0.2582  -0.2518  -0.2184  -0.1783

          Ground-State Mulliken Net Atomic Charges

     Atom                 Charge (a.u.)
  ----------------------------------------
      1 C                    -0.341311
      2 C                    -0.092028
      3 C                    -0.120359
      4 C                    -0.127277
      5 C                    -0.145476
      6 C                    -0.150091
      7 C                    -0.137151
      8 C                    -0.158324
      9 C                    -0.115601
     10 C                    -0.152410
     11 C                    -0.165753
     12 C                    -0.110419
     13 C                    -0.150189
     14 C                    -0.128911
     15 C                    -0.058621
     16 C                    -0.376025
     17 S                     0.259275
     18 S                     0.270810
     19 S                     0.252235
     20 H                     0.148186
     21 H                     0.143286
     22 H                     0.138080
     23 H                     0.141720
     24 H                     0.155439
     25 H                     0.154790
     26 H                     0.142435
     27 H                     0.139675
     28 H                     0.140799
     29 H                     0.139240
     30 H                     0.156444
     31 H                     0.147534
  ----------------------------------------
  Sum of atomic charges =     0.000000

                    Cartesian Multipole Moments
 -----------------------------------------------------------------
    Charge (ESU x 10^10)
                 0.0000
    Dipole Moment (Debye)
         X      -0.1590      Y       0.7255      Z       0.0068
       Tot       0.7427
    Quadrupole Moments (Debye-Ang)
        XX    -110.5658     XY      -5.3543     YY    -117.6763
        XZ      -0.0070     YZ      -0.0380     ZZ    -138.9253

 Total job time:  64.23s(wall), 63.90s(cpu)
        *  Thank you very much for using Q-Chem.  Have a nice day.  *
