 Q-Chem 5.2, Q-Chem, Inc., Pleasanton, CA (2019)
 Q-Chem 5.2.1 for Intel X86 EM64T Linux

User input:
--------------------------------------------------------------
$molecule
0 1
C        -3.51496325970000    1.45769729800000   -0.57787264660000
C        -2.53039472370000    1.47427777250000    0.30833244960000
C        -1.29804342670000    0.68651136270000    0.20700745850000
C        -0.11431138180000    1.33987113320000    0.45912792330000
C         1.10103407180000    0.67642925510000    0.24501937730000
N         2.33684226620000    1.14753757940000    0.41828896130000
S         3.38300233200000   -0.00082331550000    0.00111627180000
N         2.33639671260000   -1.14846708410000   -0.41731592910000
C         1.10081518480000   -0.67628158690000   -0.24563832200000
C        -0.11485641040000   -1.33888275630000   -0.46073233600000
C        -1.29822460460000   -0.68478159910000   -0.20923061250000
C        -2.53102074510000   -1.47218746860000   -0.31028073950000
C        -3.51187586740000   -1.45940554540000    0.58003206560000
H        -4.37066600550000    2.10372500770000   -0.48191899500000
H        -3.50148833580000    0.80295259020000   -1.43273897160000
H        -2.55901060640000    2.17682897830000    1.13222515850000
H        -0.10488720390000    2.36848704920000    0.78523116870000
H        -0.10596176190000   -2.36755514700000   -0.78668869470000
H        -2.56279493640000   -2.17086139500000   -1.13732595060000
H        -3.49445623820000   -0.80830589040000    1.43759622700000
H        -4.36808977210000   -2.10486968460000    0.48506319060000
$end

$rem
BASIS = 6-31G*
GUI = 2
METHOD = B3LYP
PRINT_ORBITALS false
MOLDEN_FORMAT false
--------------------------------------------------------------

             Standard Nuclear Orientation (Angstroms)
    I     Atom           X                Y                Z
 ----------------------------------------------------------------
    1      C      -3.4081519364    -1.3553765886     0.7871946309
    2      C      -2.4234526808    -1.5033959509    -0.0865714883
    3      C      -1.1909971278    -0.7094726253    -0.1030473008
    4      C      -0.0073263269    -1.3931610750    -0.2552274945
    5      C       1.2080875614    -0.7054488322    -0.1417236712
    6      N       2.4438503052    -1.1972099513    -0.2429597222
    7      S       3.4901218472     0.0002059515    -0.0006217406
    8      N       2.4436274535     1.1973668616     0.2427099015
    9      C       1.2080001286     0.7050923820     0.1427848936
   10      C      -0.0076032521     1.3924299592     0.2569717906
   11      C      -1.1910328418     0.7084024870     0.1051082095
   12      C      -2.4237246834     1.5022433491     0.0879919984
   13      C      -3.4044478473     1.3576220211    -0.7907365073
   14      H      -4.2639382499    -2.0083813407     0.7880153766
   15      H      -3.3947062200    -0.5810349581     1.5354478578
   16      H      -2.4520512664    -2.3204170148    -0.7971029537
   17      H       0.0019908246    -2.4587793422    -0.4250913921
   18      H       0.0013984531     2.4580799409     0.4266851841
   19      H      -2.4555172328     2.3159055420     0.8022060458
   20      H      -3.3869980526     0.5864808373    -1.5421932756
   21      H      -4.2605780827     2.0101419797    -0.7927406138
 ----------------------------------------------------------------

    9    -893.4972619089      7.81e-06  Convergence criterion met
 Total energy in the final basis set =     -893.4972619089

                    Orbital Energies (a.u.)
 --------------------------------------------------------------

 Alpha MOs
 -- Occupied --
-88.9694 -14.3579 -14.3578 -10.2346 -10.2342 -10.2149 -10.2145 -10.2019
-10.2018 -10.1968 -10.1968 -10.1868 -10.1867  -8.0257  -5.9909  -5.9851
 -5.9834  -1.0247  -0.8863  -0.8776  -0.8044  -0.7958  -0.7417  -0.7410
 -0.6518  -0.6379  -0.6064  -0.5717  -0.5641  -0.5087  -0.5029  -0.4843
 -0.4663  -0.4520  -0.4491  -0.4329  -0.4134  -0.4054  -0.3856  -0.3644
 -0.3637  -0.3595  -0.3298  -0.3146  -0.2991  -0.2884  -0.2864  -0.2326
 -0.2292

          Ground-State Mulliken Net Atomic Charges

     Atom                 Charge (a.u.)
  ----------------------------------------
      1 C                    -0.308557
      2 C                    -0.154331
      3 C                     0.097749
      4 C                    -0.204304
      5 C                     0.255872
      6 N                    -0.563983
      7 S                     0.577945
      8 N                    -0.564231
      9 C                     0.255862
     10 C                    -0.204005
     11 C                     0.097192
     12 C                    -0.154867
     13 C                    -0.308156
     14 H                     0.146785
     15 H                     0.151890
     16 H                     0.140452
     17 H                     0.149727
     18 H                     0.149734
     19 H                     0.140574
     20 H                     0.151862
     21 H                     0.146792
  ----------------------------------------
  Sum of atomic charges =     0.000000

                    Cartesian Multipole Moments
 -----------------------------------------------------------------
    Charge (ESU x 10^10)
                -0.0000
    Dipole Moment (Debye)
         X      -2.3490      Y      -0.0007      Z      -0.0003
       Tot       2.3490
    Quadrupole Moments (Debye-Ang)
        XX     -75.4726     XY      -0.0110     YY     -80.9748
        XZ      -0.0027     YZ       1.5219     ZZ     -81.1800

 Total job time:  36.89s(wall), 36.75s(cpu)
        *  Thank you very much for using Q-Chem.  Have a nice day.  *
