 Q-Chem 5.2, Q-Chem, Inc., Pleasanton, CA (2019)
 Q-Chem 5.2.1 for Intel X86 EM64T Linux

User input:
--------------------------------------------------------------
$molecule
0 1
C         3.84214126960000    1.41857978690000   -0.09645200360000
C         3.32274863550000    0.19682868310000   -0.11376835970000
C         1.90724796530000   -0.13688066350000   -0.03369223130000
C         0.88374075460000    0.80902909870000    0.05333822340000
C        -0.43783699530000    0.38888039730000    0.10026043470000
C        -1.48665041110000    1.45720773870000    0.11475564690000
O        -1.32020157050000    2.51765967110000    0.64903011380000
O        -2.62428502350000    1.18722315700000   -0.54899106110000
C        -0.72068185750000   -0.98737520530000    0.10504578300000
C        -2.07101131200000   -1.53067148450000    0.24804351640000
C        -2.49941133820000   -2.62821808010000   -0.36352813470000
C         0.38495505830000   -1.84284337870000    0.03433804690000
N         1.63120675720000   -1.44351856460000   -0.04777237280000
H         4.90570477940000    1.57219589270000   -0.15775600170000
H         3.24063892470000    2.30820593770000   -0.01839797720000
H         3.96210286660000   -0.67204930890000   -0.18922579840000
H         1.08895124000000    1.86703647640000    0.06938810330000
H        -2.63177852800000    0.29720581030000   -0.93128694720000
H        -2.72910566120000   -0.99562443570000    0.92311066670000
H        -1.87834914470000   -3.17610774410000   -1.05257870970000
H        -3.49367656350000   -3.00865086670000   -0.20634744520000
H         0.23847491730000   -2.91490593450000    0.06289137290000
$end

$rem
BASIS = 6-31G*
GUI = 2
METHOD = B3LYP
PRINT_ORBITALS false
MOLDEN_FORMAT false
--------------------------------------------------------------

             Standard Nuclear Orientation (Angstroms)
    I     Atom           X                Y                Z
 ----------------------------------------------------------------
    1      C       4.0502998085    -0.5589073048     0.1653477321
    2      C       3.2752312835     0.5174467057     0.1063973315
    3      C       1.8218912397     0.5262255915     0.0107839956
    4      C       1.0319324126    -0.6250186049    -0.0113166953
    5      C      -0.3490928186    -0.5093519838    -0.0797631551
    6      C      -1.1376042322    -1.7807298051    -0.0215292565
    7      O      -0.7370016137    -2.8103915514    -0.4873907742
    8      O      -2.3134477949    -1.7257627786     0.6281125065
    9      C      -0.9270875360     0.7679839801    -0.1716246883
   10      C      -2.3622174722     0.9911245642    -0.3437269272
   11      C      -3.0272971907     2.0042450725     0.1979471445
   12      C      -0.0369870600     1.8481933539    -0.1603454910
   13      N       1.2656242904     1.7384800118    -0.0578156040
   14      H       5.1209629095    -0.4708823003     0.2320976403
   15      H       3.6595835821    -1.5620686725     0.1469007615
   16      H       3.7074551260     1.5085617486     0.1234309669
   17      H       1.4645412841    -1.6109187543     0.0396638189
   18      H      -2.5200213566    -0.8367323436     0.9525958245
   19      H      -2.8799060692     0.2828498999    -0.9804566114
   20      H      -2.5486969342     2.7177722626     0.8479569679
   21      H      -4.0791710237     2.1461717392     0.0207002171
   22      H      -0.4149328901     2.8578515623    -0.2569741585
 ----------------------------------------------------------------

    9    -591.6415103422      6.76e-06  Convergence criterion met
 Total energy in the final basis set =     -591.6415103422

                    Orbital Energies (a.u.)
 --------------------------------------------------------------

 Alpha MOs
 -- Occupied --
-19.2021 -19.1408 -14.3403 -10.3282 -10.2413 -10.2358 -10.2308 -10.2265
-10.2203 -10.2124 -10.2116 -10.1977 -10.1946  -1.1123  -1.0296  -0.9666
 -0.8520  -0.8188  -0.7941  -0.7434  -0.6751  -0.6733  -0.6291  -0.6019
 -0.5955  -0.5410  -0.5259  -0.4927  -0.4769  -0.4679  -0.4607  -0.4570
 -0.4442  -0.4333  -0.4192  -0.4043  -0.3924  -0.3806  -0.3652  -0.3414
 -0.3227  -0.3032  -0.2962  -0.2802  -0.2647  -0.2402

          Ground-State Mulliken Net Atomic Charges

     Atom                 Charge (a.u.)
  ----------------------------------------
      1 C                    -0.342611
      2 C                    -0.090380
      3 C                     0.302194
      4 C                    -0.206852
      5 C                     0.034858
      6 C                     0.541192
      7 O                    -0.433899
      8 O                    -0.570963
      9 C                     0.082360
     10 C                    -0.205898
     11 C                    -0.328286
     12 C                    -0.003510
     13 N                    -0.473503
     14 H                     0.155506
     15 H                     0.154425
     16 H                     0.149921
     17 H                     0.169657
     18 H                     0.420261
     19 H                     0.174771
     20 H                     0.161516
     21 H                     0.162421
     22 H                     0.146820
  ----------------------------------------
  Sum of atomic charges =     0.000000

                    Cartesian Multipole Moments
 -----------------------------------------------------------------
    Charge (ESU x 10^10)
                 0.0000
    Dipole Moment (Debye)
         X      -0.7678      Y       2.8157      Z       1.0290
       Tot       3.0946
    Quadrupole Moments (Debye-Ang)
        XX     -63.3974     XY     -10.9889     YY     -84.9645
        XZ      -0.1494     YZ      -0.8837     ZZ     -75.3327

 Total job time:  30.40s(wall), 30.30s(cpu)
        *  Thank you very much for using Q-Chem.  Have a nice day.  *
