 Q-Chem 5.2, Q-Chem, Inc., Pleasanton, CA (2019)
 Q-Chem 5.2.1 for Intel X86 EM64T Linux

User input:
--------------------------------------------------------------
$molecule
0 1
C        -4.09950234710000   -0.69237548530000    0.11859009880000
C        -3.18103424220000    0.26532190400000    0.07913267930000
C        -1.73718984820000    0.07635425260000    0.04743183380000
C        -1.10551696610000   -1.16359624690000    0.09245501220000
C         0.27286298130000   -1.32921159520000    0.05626973590000
C         0.78038792130000   -2.69787376340000    0.10316097160000
C         1.98043787210000   -3.14324710690000   -0.24781803210000
C         1.10928448360000   -0.18769383480000   -0.00661787570000
O         2.44259062360000   -0.39673556580000   -0.00330532940000
C         3.35088247630000    0.67884693530000    0.12513869490000
C         0.48385710490000    1.05963464260000   -0.05256648490000
F         1.19633781320000    2.21112047580000   -0.13048218200000
C        -0.89745877360000    1.18523650060000   -0.02896499090000
F        -1.41544522610000    2.42693157370000   -0.08036274590000
H        -5.14830000870000   -0.45332118010000    0.13983054260000
H        -3.85400305600000   -1.74021992860000    0.12967410240000
H        -3.49806087480000    1.29968728540000    0.06564332520000
H        -1.71704619350000   -2.04955700310000    0.15342754920000
H         0.04248248640000   -3.41485735180000    0.44334141730000
H         2.75516759950000   -2.50053429560000   -0.62025649220000
H         2.21626500780000   -4.19202616820000   -0.17676641270000
H         4.33053585780000    0.21148678210000    0.21755663030000
H         3.15029111240000    1.27463983730000    1.01839235270000
H         3.34192671130000    1.32622912490000   -0.75479824820000
$end

$rem
BASIS = 6-31G*
GUI = 2
METHOD = B3LYP
PRINT_ORBITALS false
MOLDEN_FORMAT false
--------------------------------------------------------------

             Standard Nuclear Orientation (Angstroms)
    I     Atom           X                Y                Z
 ----------------------------------------------------------------
    1      C       3.9245299791    -1.3694120210    -0.0363418624
    2      C       3.1983506661    -0.2581979781    -0.0224929092
    3      C       1.7441383806    -0.1769633871    -0.0142515055
    4      C       0.8949886018    -1.2794789592    -0.0580581762
    5      C      -0.4906484446    -1.1873216228    -0.0444163884
    6      C      -1.2415585343    -2.4392672617    -0.0866376835
    7      C      -2.5085038406    -2.6508694702     0.2476341469
    8      C      -1.1025976528     0.0896966728    -0.0075244172
    9      O      -2.4513585414     0.1303445960    -0.0321514960
   10      C      -3.1431675423     1.3533501040    -0.1871595844
   11      C      -0.2582359830     1.2006276994     0.0370248369
   12      F      -0.7467833708     2.4647580456     0.0910170332
   13      C       1.1226982674     1.0687693124     0.0364122838
   14      F       1.8603573120     2.1940680603     0.0845808480
   15      H       4.9996405304    -1.3283654133    -0.0415505799
   16      H       3.4898322907    -2.3539848269    -0.0413462722
   17      H       3.7008074734     0.6999561599    -0.0136954520
   18      H       1.3331393643    -2.2638150555    -0.0995125669
   19      H      -0.6436965268    -3.2844968561    -0.4067010919
   20      H      -3.1567727475    -1.8714116482     0.6000390888
   21      H      -2.9329458187    -3.6389244924     0.1828532064
   22      H      -4.1907692837     1.0737018808    -0.2921109928
   23      H      -2.8221974143     1.8902314345    -1.0826174496
   24      H      -3.0282983916     1.9993185655     0.6863407041
 ----------------------------------------------------------------

    9    -700.0184454915      3.14e-06  Convergence criterion met
 Total energy in the final basis set =     -700.0184454915

                    Orbital Energies (a.u.)
 --------------------------------------------------------------

 Alpha MOs
 -- Occupied --
-24.7170 -24.7169 -19.1939 -10.2794 -10.2788 -10.2682 -10.2439 -10.2047
-10.2035 -10.1969 -10.1938 -10.1895 -10.1818 -10.1736  -1.2355  -1.2200
 -1.0842  -0.8795  -0.8102  -0.7887  -0.7505  -0.7345  -0.7061  -0.6430
 -0.6321  -0.5960  -0.5608  -0.5535  -0.5380  -0.5232  -0.5010  -0.4953
 -0.4711  -0.4662  -0.4581  -0.4524  -0.4450  -0.4302  -0.4184  -0.4055
 -0.4002  -0.3864  -0.3773  -0.3624  -0.3551  -0.3435  -0.3238  -0.3028
 -0.2721  -0.2308  -0.2101

          Ground-State Mulliken Net Atomic Charges

     Atom                 Charge (a.u.)
  ----------------------------------------
      1 C                    -0.352786
      2 C                    -0.110349
      3 C                     0.122256
      4 C                    -0.293928
      5 C                     0.144918
      6 C                    -0.117593
      7 C                    -0.344652
      8 C                     0.263726
      9 O                    -0.508454
     10 C                    -0.216563
     11 C                     0.270641
     12 F                    -0.294063
     13 C                     0.223147
     14 F                    -0.279225
     15 H                     0.147436
     16 H                     0.142369
     17 H                     0.144381
     18 H                     0.136250
     19 H                     0.127698
     20 H                     0.164392
     21 H                     0.135870
     22 H                     0.164626
     23 H                     0.163754
     24 H                     0.166150
  ----------------------------------------
  Sum of atomic charges =     0.000000

                    Cartesian Multipole Moments
 -----------------------------------------------------------------
    Charge (ESU x 10^10)
                 0.0000
    Dipole Moment (Debye)
         X      -1.0427      Y      -0.5552      Z      -0.2476
       Tot       1.2070
    Quadrupole Moments (Debye-Ang)
        XX     -70.6585     XY      -5.7729     YY     -77.6447
        XZ      -0.1744     YZ       0.0570     ZZ     -81.7768

 Total job time:  39.59s(wall), 39.38s(cpu)
        *  Thank you very much for using Q-Chem.  Have a nice day.  *
