 Q-Chem 5.2, Q-Chem, Inc., Pleasanton, CA (2019)
 Q-Chem 5.2.1 for Intel X86 EM64T Linux

User input:
--------------------------------------------------------------
$molecule
0 1
C         4.10664898650000   -1.01474574410000   -0.11351385810000
C         3.43188520980000    0.11540298550000   -0.28969464800000
C         2.00322786100000    0.32182405390000   -0.09655079010000
C         1.46721296850000    1.59589329310000   -0.29276401600000
C         0.12153901680000    1.83327269630000   -0.11852765720000
C        -0.75191597720000    0.81356764040000    0.25946252090000
C        -2.17610117040000    1.08486621350000    0.44035657100000
C        -2.86789757050000    1.96779751870000   -0.26696744570000
C        -0.22061048350000   -0.46774352870000    0.46512982730000
C        -1.11872790050000   -1.62016703220000    0.85474117590000
C        -2.13192131870000   -1.83262410150000   -0.14981432620000
N        -2.92458081800000   -1.99860912890000   -0.95616647960000
C         1.12979668440000   -0.69861181790000    0.27934785840000
H         5.16832417980000   -1.06312293490000   -0.28405991280000
H         3.64189280540000   -1.93236089740000    0.20395551310000
H         3.97024215700000    0.99980125940000   -0.60866210830000
H         2.12001918390000    2.40707437810000   -0.58233923790000
H        -0.26846366090000    2.83006545660000   -0.25860673720000
H        -2.68482450640000    0.50982776320000    1.20352107400000
H        -2.42223144600000    2.53804788360000   -1.06444129230000
H        -3.91664463050000    2.13236721160000   -0.09085659920000
H        -1.61440427210000   -1.42177082440000    1.81124095880000
H        -0.53488079600000   -2.53933369900000    0.95481159500000
H         1.51484336400000   -1.69638654020000    0.42948697620000
$end

$rem
BASIS = 6-31G*
GUI = 2
METHOD = B3LYP
PRINT_ORBITALS false
MOLDEN_FORMAT false
--------------------------------------------------------------

             Standard Nuclear Orientation (Angstroms)
    I     Atom           X                Y                Z
 ----------------------------------------------------------------
    1      C       4.0901650438    -0.9844644488    -0.1341754425
    2      C       3.4065676333     0.1478885794    -0.2527215340
    3      C       1.9739079263     0.3299676508    -0.0648135692
    4      C       1.4278828479     1.6083976639    -0.1934111466
    5      C       0.0781116705     1.8232201826    -0.0216126365
    6      C      -0.7896717290     0.7755598953     0.2865407284
    7      C      -2.2183471174     1.0231540804     0.4660199521
    8      C      -2.9106254174     1.9392950632    -0.1972248508
    9      C      -0.2483920016    -0.5106889032     0.4241022257
   10      C      -1.1396871686    -1.6917335315     0.7359007832
   11      C      -2.1394349937    -1.8547847291    -0.2911090800
   12      N      -2.9213478997    -1.9809347290    -1.1149793922
   13      C       1.1061788838    -0.7183009611     0.2412099737
   14      H       5.1541063599    -1.0133693977    -0.2947179766
   15      H       3.6307322651    -1.9230429424     0.1242710942
   16      H       3.9399299430     1.0540539024    -0.5137154117
   17      H       2.0760569515     2.4407970258    -0.4279450468
   18      H      -0.3198768193     2.8229107274    -0.1084689607
   19      H      -2.7300505863     0.4003806148     1.1886550474
   20      H      -2.4615406023     2.5587084477    -0.9551286686
   21      H      -3.9628218821     2.0839870882    -0.0242640823
   22      H      -1.6479684086    -1.5534694971     1.6963596283
   23      H      -0.5481737273    -2.6098777795     0.7895839289
   24      H       1.4991083362    -1.7195983386     0.3379937727
 ----------------------------------------------------------------

    9    -518.5929317071      4.05e-06  Convergence criterion met
 Total energy in the final basis set =     -518.5929317071

                    Orbital Energies (a.u.)
 --------------------------------------------------------------

 Alpha MOs
 -- Occupied --
-14.3236 -10.2398 -10.2194 -10.2145 -10.2057 -10.2041 -10.1986 -10.1974
-10.1967 -10.1958 -10.1951 -10.1873 -10.1862  -0.9081  -0.8824  -0.8241
 -0.8032  -0.7738  -0.7356  -0.7199  -0.6488  -0.6100  -0.5845  -0.5672
 -0.5162  -0.5106  -0.5059  -0.4712  -0.4616  -0.4530  -0.4392  -0.4313
 -0.4143  -0.4012  -0.3855  -0.3647  -0.3560  -0.3533  -0.3496  -0.3343
 -0.3218  -0.3121  -0.2747  -0.2619  -0.2211

          Ground-State Mulliken Net Atomic Charges

     Atom                 Charge (a.u.)
  ----------------------------------------
      1 C                    -0.350281
      2 C                    -0.117315
      3 C                     0.191656
      4 C                    -0.196605
      5 C                    -0.184859
      6 C                     0.126199
      7 C                    -0.128484
      8 C                    -0.325376
      9 C                     0.122509
     10 C                    -0.443534
     11 C                     0.361406
     12 N                    -0.459982
     13 C                    -0.254449
     14 H                     0.148477
     15 H                     0.143189
     16 H                     0.130478
     17 H                     0.132840
     18 H                     0.136261
     19 H                     0.133642
     20 H                     0.148944
     21 H                     0.150818
     22 H                     0.205449
     23 H                     0.202523
     24 H                     0.126493
  ----------------------------------------
  Sum of atomic charges =     0.000000

                    Cartesian Multipole Moments
 -----------------------------------------------------------------
    Charge (ESU x 10^10)
                 0.0000
    Dipole Moment (Debye)
         X       2.5047      Y       1.0211      Z       2.4235
       Tot       3.6317
    Quadrupole Moments (Debye-Ang)
        XX     -78.7822     XY      -6.9860     YY     -70.6107
        XZ      -8.5021     YZ      -7.7901     ZZ     -79.6686

 Total job time:  33.70s(wall), 33.33s(cpu)
        *  Thank you very much for using Q-Chem.  Have a nice day.  *
