 Q-Chem 5.2, Q-Chem, Inc., Pleasanton, CA (2019)
 Q-Chem 5.2.1 for Intel X86 EM64T Linux

User input:
--------------------------------------------------------------
$molecule
0 1
C         3.50866526850000   -1.16837400700000    0.54810732770000
C         2.86931845060000   -0.18090327140000   -0.06505711360000
C         1.41861780520000   -0.00883921960000   -0.08851591590000
C         0.57549329740000   -1.11525081890000   -0.05018181040000
C        -0.80680545810000   -1.01240841540000   -0.06634051650000
C        -1.62178061420000   -2.27161030940000   -0.06326663760000
C        -1.37938539730000    0.26340631290000   -0.12834538040000
C        -2.81960958530000    0.52449992090000   -0.13795223600000
C        -3.73892583210000   -0.08981374730000    0.59352180220000
C        -0.53341300060000    1.37092803720000   -0.20600835690000
C         0.84426941560000    1.26784990310000   -0.17906697490000
C         1.69102630900000    2.50491959840000   -0.23166021250000
H         4.58249654410000   -1.24611019380000    0.52544264600000
H         2.98999583130000   -1.92668849540000    1.11047218690000
H         3.44309686480000    0.57432418430000   -0.58596039020000
H         1.01873359910000   -2.10060848340000   -0.02896100700000
H        -1.06792938080000   -3.07612689430000   -0.54352890840000
H        -2.56459719760000   -2.12967923290000   -0.58607524050000
H        -1.84076840190000   -2.58425905250000    0.95797656790000
H        -3.12089000520000    1.34600078620000   -0.77852835210000
H        -3.49540397210000   -0.87153843010000    1.29116884430000
H        -4.77722588930000    0.19302511980000    0.54137239650000
H        -0.98257304820000    2.35324368830000   -0.27105813870000
H         1.06685205550000    3.39494869230000   -0.20699493020000
H         2.28194788240000    2.52872376900000   -1.14767318250000
H         2.37723834650000    2.53891435690000    0.61332352180000
$end

$rem
BASIS = 6-31G*
GUI = 2
METHOD = B3LYP
PRINT_ORBITALS false
MOLDEN_FORMAT false
--------------------------------------------------------------

             Standard Nuclear Orientation (Angstroms)
    I     Atom           X                Y                Z
 ----------------------------------------------------------------
    1      C       3.3638420403    -1.5682390418     0.4311649746
    2      C       2.8373742121    -0.4630719455    -0.0799815351
    3      C       1.4124348677    -0.1403608244    -0.0896827185
    4      C       0.4597602891    -1.1517915563    -0.1664556847
    5      C      -0.9043462317    -0.9053887325    -0.1757595296
    6      C      -1.8442415740    -2.0673555647    -0.3030905552
    7      C      -1.3420730658     0.4225209466    -0.1090758464
    8      C      -2.7476360127     0.8308433574    -0.0959044095
    9      C      -3.7347170634     0.2442191661     0.5667576241
   10      C      -0.3859334893     1.4387275181    -0.0713065735
   11      C       0.9734151418     1.1914800401    -0.0513124853
   12      C       1.9433024969     2.3332603590     0.0245883568
   13      H       4.4242263774    -1.7539652329     0.4035778302
   14      H       2.7627041572    -2.3217217698     0.9120080961
   15      H       3.4924617093     0.2774673471    -0.5197454822
   16      H       0.7991947692    -2.1747958510    -0.2444842779
   17      H      -1.3696162091    -2.8722151653    -0.8612856457
   18      H      -2.7605345504    -1.7765734152    -0.8112532246
   19      H      -2.1076089670    -2.4572037460     0.6804228328
   20      H      -2.9545280581     1.7395773806    -0.6503135366
   21      H      -3.5819427751    -0.6249449186     1.1818361410
   22      H      -4.7377211560     0.6367729160     0.5408976633
   23      H      -0.7309904173     2.4637607043    -0.0372046038
   24      H       1.4135153560     3.2760223870     0.1380740688
   25      H       2.5455696971     2.3881918141    -0.8826555247
   26      H       2.6181804013     2.2105652169     0.8704759566
 ----------------------------------------------------------------

    8    -465.6737396089      4.48e-06  Convergence criterion met
 Total energy in the final basis set =     -465.6737396089

                    Orbital Energies (a.u.)
 --------------------------------------------------------------

 Alpha MOs
 -- Occupied --
-10.1871 -10.1870 -10.1867 -10.1861 -10.1860 -10.1853 -10.1779 -10.1769
-10.1769 -10.1769 -10.1756 -10.1726  -0.8658  -0.8087  -0.7773  -0.7649
 -0.7200  -0.7103  -0.6531  -0.6271  -0.5920  -0.5617  -0.5342  -0.4929
 -0.4735  -0.4654  -0.4369  -0.4311  -0.4231  -0.4155  -0.4117  -0.3982
 -0.3895  -0.3864  -0.3676  -0.3562  -0.3436  -0.3321  -0.3232  -0.2970
 -0.2638  -0.2335  -0.2095

          Ground-State Mulliken Net Atomic Charges

     Atom                 Charge (a.u.)
  ----------------------------------------
      1 C                    -0.339169
      2 C                    -0.129417
      3 C                     0.120374
      4 C                    -0.256876
      5 C                     0.133377
      6 C                    -0.536513
      7 C                     0.115819
      8 C                    -0.139638
      9 C                    -0.336831
     10 C                    -0.261582
     11 C                     0.130663
     12 C                    -0.536048
     13 H                     0.140666
     14 H                     0.143457
     15 H                     0.130249
     16 H                     0.119815
     17 H                     0.153196
     18 H                     0.167382
     19 H                     0.159706
     20 H                     0.132864
     21 H                     0.147360
     22 H                     0.141017
     23 H                     0.117022
     24 H                     0.155831
     25 H                     0.161289
     26 H                     0.165989
  ----------------------------------------
  Sum of atomic charges =     0.000000

                    Cartesian Multipole Moments
 -----------------------------------------------------------------
    Charge (ESU x 10^10)
                 0.0000
    Dipole Moment (Debye)
         X       0.0554      Y       0.1729      Z      -0.0255
       Tot       0.1833
    Quadrupole Moments (Debye-Ang)
        XX     -66.8438     XY       0.3928     YY     -67.1279
        XZ      -0.5686     YZ      -1.8486     ZZ     -74.8353

 Total job time:  29.47s(wall), 29.36s(cpu)
        *  Thank you very much for using Q-Chem.  Have a nice day.  *
