 Q-Chem 5.2, Q-Chem, Inc., Pleasanton, CA (2019)
 Q-Chem 5.2.1 for Intel X86 EM64T Linux

User input:
--------------------------------------------------------------
$molecule
0 1
C        -3.62154173290000    0.25070263260000   -0.89048306380000
C        -2.98067225500000   -0.44915635760000    0.03218710020000
C        -1.52972717280000   -0.64357794470000    0.07185722600000
C        -0.98178184200000   -1.88695084780000    0.19514370470000
S         0.72599443470000   -1.87478734710000    0.17982989550000
C         0.74482007970000   -0.13564322530000    0.04006595960000
C         2.02568536950000    0.55975420860000   -0.17120553400000
O         2.12163102130000    1.64660262860000   -0.67260970380000
O         3.13014832080000   -0.11592588560000    0.20556610540000
C        -0.53368247220000    0.38266835670000    0.00573416500000
C        -0.86430993080000    1.80092295890000    0.03547020080000
C        -0.22408213470000    2.70258867600000    0.76539909290000
H        -4.69404566740000    0.34160612600000   -0.88202778020000
H        -3.10687411480000    0.74131296790000   -1.69970456680000
H        -3.53488624990000   -0.97331887270000    0.80086886250000
H        -1.49775385770000   -2.82449167090000    0.26890049870000
H         2.93713982210000   -0.98285229470000    0.58693544000000
H        -1.73900865790000    2.08770133180000   -0.52907951050000
H         0.62893481840000    2.45210250710000    1.37159609210000
H        -0.53192922270000    3.73347019960000    0.77317355740000
$end

$rem
BASIS = 6-31G*
GUI = 2
METHOD = B3LYP
PRINT_ORBITALS false
MOLDEN_FORMAT false
--------------------------------------------------------------

             Standard Nuclear Orientation (Angstroms)
    I     Atom           X                Y                Z
 ----------------------------------------------------------------
    1      C      -3.5789231137    -0.4974802858     0.6887143615
    2      C      -2.9403282903     0.2742013238    -0.1764680876
    3      C      -1.5064628062     0.5683082557    -0.1301432553
    4      C      -1.0409466595     1.8495141392    -0.1869413076
    5      S       0.6602653862     1.9533467731    -0.0774943587
    6      C       0.7930920186     0.2159015278     0.0127926525
    7      C       2.1063513426    -0.3970545668     0.2744487236
    8      O       2.2511804446    -1.4906182359     0.7487842909
    9      O       3.1793876230     0.3643103172    -0.0209417350
   10      C      -0.4460835213    -0.3892344041    -0.0386741210
   11      C      -0.6747597601    -1.8250058677    -0.1276254966
   12      C       0.0648351573    -2.6566010796    -0.8467483271
   13      H      -4.6404814703    -0.6609866212     0.6182930560
   14      H      -3.0750287546    -0.9780069816     1.5106664700
   15      H      -3.4881177693     0.7841638338    -0.9591788076
   16      H      -1.6165044055     2.7515928365    -0.2620231666
   17      H       2.9468487019     1.2280435665    -0.3872022613
   18      H      -1.5560842133    -2.1890437518     0.3791285878
   19      H       0.9293135553    -2.3288704680    -1.3973169338
   20      H      -0.1693825686    -3.7052716896    -0.9013285068
 ----------------------------------------------------------------

   10    -896.3462725998      3.50e-06  Convergence criterion met
 Total energy in the final basis set =     -896.3462725998

                    Orbital Energies (a.u.)
 --------------------------------------------------------------

 Alpha MOs
 -- Occupied --
-88.9296 -19.1935 -19.1265 -10.3217 -10.2333 -10.2324 -10.2201 -10.2158
-10.2071 -10.1950 -10.1927 -10.1844  -7.9917  -5.9556  -5.9519  -5.9489
 -1.1029  -1.0176  -0.9095  -0.8121  -0.7987  -0.7435  -0.7288  -0.6538
 -0.6174  -0.6055  -0.5918  -0.5507  -0.5096  -0.4769  -0.4709  -0.4564
 -0.4474  -0.4445  -0.4187  -0.4151  -0.4000  -0.3899  -0.3823  -0.3581
 -0.3553  -0.3145  -0.3062  -0.2955  -0.2682  -0.2446  -0.2352

          Ground-State Mulliken Net Atomic Charges

     Atom                 Charge (a.u.)
  ----------------------------------------
      1 C                    -0.326720
      2 C                    -0.126722
      3 C                     0.110550
      4 C                    -0.386923
      5 S                     0.247000
      6 C                    -0.347400
      7 C                     0.610907
      8 O                    -0.441478
      9 O                    -0.580699
     10 C                     0.145120
     11 C                    -0.105883
     12 C                    -0.295430
     13 H                     0.151653
     14 H                     0.157141
     15 H                     0.146773
     16 H                     0.183424
     17 H                     0.419241
     18 H                     0.137519
     19 H                     0.153710
     20 H                     0.148217
  ----------------------------------------
  Sum of atomic charges =     0.000000

                    Cartesian Multipole Moments
 -----------------------------------------------------------------
    Charge (ESU x 10^10)
                 0.0000
    Dipole Moment (Debye)
         X      -3.4485      Y       2.6562      Z      -1.5914
       Tot       4.6347
    Quadrupole Moments (Debye-Ang)
        XX     -76.8389     XY       6.5482     YY     -70.8567
        XZ      -4.6064     YZ       0.3585     ZZ     -76.9064

 Total job time:  31.20s(wall), 31.10s(cpu)
        *  Thank you very much for using Q-Chem.  Have a nice day.  *
