 Q-Chem 5.2, Q-Chem, Inc., Pleasanton, CA (2019)
 Q-Chem 5.2.1 for Intel X86 EM64T Linux

User input:
--------------------------------------------------------------
$molecule
0 1
C         3.81749157430000   -0.33119334240000   -0.00327396300000
C         2.82881871930000    0.55663911910000   -0.00621529130000
C         1.39809986080000    0.29790694840000   -0.00170178520000
C         0.53669708350000    1.39711817480000   -0.00622578180000
C        -0.84014450410000    1.27534667130000   -0.00298771950000
O        -1.64676790030000    2.37673269400000   -0.00772266520000
C        -1.43093399410000    0.00025662790000    0.00418570920000
C        -2.88040496540000   -0.11160702420000    0.00703951520000
C        -3.59478368830000   -1.23159307140000   -0.01335643540000
C        -0.57440566590000   -1.09756029530000    0.00970702420000
C         0.80530432290000   -0.97739411270000    0.00710478450000
O         1.58267309660000   -2.09838955490000    0.01355731460000
H         4.84583713690000   -0.00936346150000   -0.00754791710000
H         3.64213421730000   -1.39017969360000    0.00345981160000
H         3.07885608930000    1.61185429820000   -0.01304551370000
H         0.97145109860000    2.38935791690000   -0.01247261100000
H        -1.10077026190000    3.17153048990000   -0.01270175270000
H        -3.39152547520000    0.84098490180000    0.02562734930000
H        -3.15235888350000   -2.21304727860000   -0.03606048760000
H        -4.67067674690000   -1.20451256600000   -0.00928953590000
H        -1.00170202330000   -2.09098002120000    0.01781918790000
H         1.01279628240000   -2.87756311190000    0.01980368230000
$end

$rem
BASIS = 6-31G*
GUI = 2
METHOD = B3LYP
PRINT_ORBITALS false
MOLDEN_FORMAT false
--------------------------------------------------------------

             Standard Nuclear Orientation (Angstroms)
    I     Atom           X                Y                Z
 ----------------------------------------------------------------
    1      C       3.8294807483    -0.0325700072    -0.0054937519
    2      C       2.7767312638     0.7782613988    -0.0051787942
    3      C       1.3695724830     0.4124662607    -0.0010263861
    4      C       0.4278063077     1.4436678038    -0.0016428564
    5      C      -0.9359469535     1.2185064471     0.0016658504
    6      O      -1.8232533854     2.2560041513     0.0008268449
    7      C      -1.4289947715    -0.0974844368     0.0048503316
    8      C      -2.8659176443    -0.3182365235     0.0078321898
    9      C      -3.4939044100    -1.4887861063    -0.0160004924
   10      C      -0.4921936450    -1.1276661119     0.0064703648
   11      C       0.8745411763    -0.9038914786     0.0037912197
   12      O       1.7341544039    -1.9631522894     0.0062933535
   13      H       4.8306564203     0.3658291385    -0.0090616018
   14      H       3.7344040980    -1.1017739601    -0.0021807167
   15      H       2.9465597396     1.8493313389    -0.0086262135
   16      H       0.7865710661     2.4658555592    -0.0047770494
   17      H      -1.3386861708     3.0896886499    -0.0017266127
   18      H      -3.4473378850     0.5930769450     0.0297257136
   19      H      -2.9788127424    -2.4340415710    -0.0420815815
   20      H      -4.5687776292    -1.5428496272    -0.0114766349
   21      H      -0.8434319477    -2.1504747254     0.0114634531
   22      H       1.2245995740    -2.7830601204     0.0101736052
 ----------------------------------------------------------------

    9    -537.4747088885      1.79e-06  Convergence criterion met
 Total energy in the final basis set =     -537.4747088885

                    Orbital Energies (a.u.)
 --------------------------------------------------------------

 Alpha MOs
 -- Occupied --
-19.1799 -19.1784 -10.2459 -10.2437 -10.1968 -10.1939 -10.1880 -10.1876
-10.1847 -10.1839 -10.1753 -10.1683  -1.0641  -1.0620  -0.8601  -0.8060
 -0.7623  -0.7372  -0.7153  -0.6481  -0.6274  -0.5800  -0.5639  -0.5518
 -0.5200  -0.4897  -0.4614  -0.4496  -0.4365  -0.4225  -0.4206  -0.4137
 -0.3935  -0.3922  -0.3749  -0.3617  -0.3461  -0.3244  -0.3226  -0.3147
 -0.2584  -0.2247  -0.1933

          Ground-State Mulliken Net Atomic Charges

     Atom                 Charge (a.u.)
  ----------------------------------------
      1 C                    -0.359624
      2 C                    -0.115209
      3 C                     0.173757
      4 C                    -0.298105
      5 C                     0.293327
      6 O                    -0.654291
      7 C                     0.143035
      8 C                    -0.105129
      9 C                    -0.355092
     10 C                    -0.290665
     11 C                     0.309625
     12 O                    -0.654735
     13 H                     0.133522
     14 H                     0.177187
     15 H                     0.119320
     16 H                     0.115632
     17 H                     0.410627
     18 H                     0.154905
     19 H                     0.133865
     20 H                     0.143711
     21 H                     0.113298
     22 H                     0.411037
  ----------------------------------------
  Sum of atomic charges =     0.000000

                    Cartesian Multipole Moments
 -----------------------------------------------------------------
    Charge (ESU x 10^10)
                 0.0000
    Dipole Moment (Debye)
         X       0.0227      Y       0.0921      Z       0.0050
       Tot       0.0950
    Quadrupole Moments (Debye-Ang)
        XX     -72.3694     XY       2.1631     YY     -52.5382
        XZ      -0.0307     YZ      -0.0026     ZZ     -74.3288

 Total job time:  26.77s(wall), 26.68s(cpu)
        *  Thank you very much for using Q-Chem.  Have a nice day.  *
