 Q-Chem 5.2, Q-Chem, Inc., Pleasanton, CA (2019)
 Q-Chem 5.2.1 for Intel X86 EM64T Linux

User input:
--------------------------------------------------------------
$molecule
0 1
F         6.51588017030000    0.41487259790000   -0.09025503310000
C         5.23631241050000    0.07872885640000    0.08441336210000
F         5.18256815390000   -1.05447719820000    0.77793958610000
C         4.22837709320000    0.80126585550000   -0.38392626510000
C         2.80418357000000    0.55244073460000   -0.26717575350000
C         1.92146638070000    1.46180810160000   -0.85825091310000
C         0.55842346800000    1.28678364870000   -0.78774939160000
C         0.01925805440000    0.18728425030000   -0.11400133620000
N        -1.35742455350000    0.00483113120000   -0.03685242450000
C        -1.90212721800000   -1.28761460230000   -0.02566944540000
C        -1.36278215150000   -2.29032442700000   -0.83016511070000
C        -1.90686114700000   -3.56003146910000   -0.81585962190000
C        -2.99706997680000   -3.84724740050000   -0.01092140550000
C        -3.53990027340000   -2.85233206860000    0.78552367160000
C        -2.99784087520000   -1.58166140490000    0.78440698030000
C        -2.21672127640000    1.11088156540000    0.02999314990000
C        -3.43404884160000    1.09788584930000   -0.64933487910000
C        -4.28364315290000    2.18455993940000   -0.57379543620000
C        -3.93265453150000    3.29919546790000    0.17002604090000
C        -2.72330335890000    3.31717953480000    0.84543943520000
C        -1.87058122810000    2.23216966090000    0.78284115430000
C         0.89668682000000   -0.72414483480000    0.48025780740000
C         2.25991360510000   -0.54628952430000    0.40403312400000
H         4.51869380300000    1.69162447410000   -0.92335069220000
H         2.31736888310000    2.31499380960000   -1.38966507680000
H        -0.10319574000000    1.99660672180000   -1.26167348220000
H        -0.51972755120000   -2.06510244860000   -1.46688210440000
H        -1.48142226190000   -4.32799568590000   -1.44482033060000
H        -3.42129485960000   -4.83968699520000   -0.00503152840000
H        -4.38736755350000   -3.06859338150000    1.41911048120000
H        -3.41706358770000   -0.80866208480000    1.41175380990000
H        -3.70547102920000    0.23240069740000   -1.23591538870000
H        -5.22302791270000    2.16336633880000   -1.10626016710000
H        -4.59761821980000    4.14763713340000    0.22412632590000
H        -2.44495363860000    4.17912647990000    1.43368945760000
H        -0.93339773540000    2.24292661840000    1.31995499510000
H         0.49601182120000   -1.57348369590000    1.01330688350000
H         2.90431243230000   -1.26599227310000    0.88128842390000
$end

$rem
BASIS = 6-31G*
GUI = 2
METHOD = B3LYP
PRINT_ORBITALS false
MOLDEN_FORMAT false
--------------------------------------------------------------

             Standard Nuclear Orientation (Angstroms)
    I     Atom           X                Y                Z
 ----------------------------------------------------------------
    1      F       6.6154610445    -0.3865508717     0.0634441503
    2      C       5.3341579756    -0.0551589508    -0.1075446082
    3      F       5.2741689817     1.0767043438    -0.8027494942
    4      C       4.3303026456    -0.7804295776     0.3653108875
    5      C       2.9048714966    -0.5367639918     0.2528611830
    6      C       2.0272902205    -1.4482241136     0.8483442130
    7      C       0.6634192820    -1.2780689933     0.7820622113
    8      C       0.1181976919    -0.1815715240     0.1082956124
    9      N      -1.2593606598    -0.0040463331     0.0353991612
   10      C      -1.8086063200     1.2864725062     0.0238945532
   11      C      -1.2701130907     2.2923854736     0.8249547960
   12      C      -1.8186660062     3.5601628007     0.8103629816
   13      C      -2.9125216771     3.8422449997     0.0085629939
   14      C      -3.4545007390     2.8441276322    -0.7844479937
   15      C      -2.9080075621     1.5753578385    -0.7830366272
   16      C      -2.1150064821    -1.1131945090    -0.0267884776
   17      C      -3.3301232860    -1.1033188759     0.6565383002
   18      C      -4.1761631519    -2.1930714085     0.5855929522
   19      C      -3.8237419459    -3.3077052870    -0.1575533148
   20      C      -2.6165711064    -3.3225905644    -0.8369309207
   21      C      -1.7674403584    -2.2345127349    -0.7789342545
   22      C       0.9904728986     0.7319265999    -0.4903572813
   23      C       2.3545564798     0.5589507492    -0.4183481155
   24      H       4.6255048939    -1.6688774348     0.9052340413
   25      H       2.4279208219    -2.2991445229     1.3798470214
   26      H       0.0058501070    -1.9894093294     1.2593362641
   27      H      -0.4241804439     2.0711570009     1.4592500337
   28      H      -1.3938374092     4.3306445361     1.4366515851
   29      H      -3.3402260517     4.8331886607     0.0024458323
   30      H      -4.3048043990     3.0563853008    -1.4155837633
   31      H      -3.3265971524     0.7998653754    -1.4077236453
   32      H      -3.6026280718    -0.2378162095     1.2425907915
   33      H      -5.1138536940    -2.1742719587     1.1211250364
   34      H      -4.4859143123    -4.1585481074    -0.2080613274
   35      H      -2.3371567311    -4.1845336628    -1.4246816280
   36      H      -0.8320028400    -2.2428909816    -1.3191252793
   37      H       0.5850778907     1.5789808506    -1.0234728944
   38      H       2.9948599850     1.2801051497    -0.8989126464
 ----------------------------------------------------------------

    9   -1025.5620275842      5.00e-06  Convergence criterion met
 Total energy in the final basis set =    -1025.5620275842

                    Orbital Energies (a.u.)
 --------------------------------------------------------------

 Alpha MOs
 -- Occupied --
-24.7392 -24.7284 -14.3674 -10.3498 -10.2278 -10.2270 -10.2269 -10.1988
-10.1984 -10.1893 -10.1881 -10.1880 -10.1879 -10.1878 -10.1865 -10.1851
-10.1850 -10.1849 -10.1849 -10.1848 -10.1846 -10.1830 -10.1829  -1.2791
 -1.2185  -0.9810  -0.8658  -0.8604  -0.8445  -0.8018  -0.7641  -0.7568
 -0.7479  -0.7464  -0.7426  -0.7087  -0.6476  -0.6341  -0.6199  -0.6089
 -0.6041  -0.6018  -0.5750  -0.5663  -0.5410  -0.5382  -0.5244  -0.5132
 -0.4986  -0.4843  -0.4737  -0.4615  -0.4547  -0.4499  -0.4443  -0.4357
 -0.4351  -0.4336  -0.4257  -0.4246  -0.4235  -0.4176  -0.4065  -0.3834
 -0.3758  -0.3745  -0.3707  -0.3617  -0.3581  -0.3520  -0.3431  -0.3405
 -0.3237  -0.2882  -0.2605  -0.2599  -0.2501  -0.2497  -0.2311  -0.1781

          Ground-State Mulliken Net Atomic Charges

     Atom                 Charge (a.u.)
  ----------------------------------------
      1 F                    -0.252348
      2 C                     0.536436
      3 F                    -0.238179
      4 C                    -0.298852
      5 C                     0.198682
      6 C                    -0.205687
      7 C                    -0.176638
      8 C                     0.298445
      9 N                    -0.650907
     10 C                     0.276168
     11 C                    -0.165331
     12 C                    -0.138396
     13 C                    -0.127529
     14 C                    -0.138280
     15 C                    -0.164007
     16 C                     0.277629
     17 C                    -0.164877
     18 C                    -0.138143
     19 C                    -0.127914
     20 C                    -0.138106
     21 C                    -0.166114
     22 C                    -0.176282
     23 C                    -0.205806
     24 H                     0.156681
     25 H                     0.128588
     26 H                     0.149065
     27 H                     0.147150
     28 H                     0.131016
     29 H                     0.125760
     30 H                     0.130712
     31 H                     0.146696
     32 H                     0.146873
     33 H                     0.130632
     34 H                     0.125588
     35 H                     0.130642
     36 H                     0.147094
     37 H                     0.149768
     38 H                     0.139772
  ----------------------------------------
  Sum of atomic charges =     0.000000

                    Cartesian Multipole Moments
 -----------------------------------------------------------------
    Charge (ESU x 10^10)
                 0.0000
    Dipole Moment (Debye)
         X      -1.6502      Y      -0.4443      Z       0.3291
       Tot       1.7404
    Quadrupole Moments (Debye-Ang)
        XX    -131.6742     XY      -2.1896     YY    -119.6476
        XZ       2.1708     YZ       0.2840     ZZ    -129.3946

 Total job time:  106.00s(wall), 105.71s(cpu)
        *  Thank you very much for using Q-Chem.  Have a nice day.  *
