 Q-Chem 5.2, Q-Chem, Inc., Pleasanton, CA (2019)
 Q-Chem 5.2.1 for Intel X86 EM64T Linux

User input:
--------------------------------------------------------------
$molecule
0 1
C         2.69625351050000   -2.60356686460000   -0.09032021920000
C         2.76285898460000   -1.28607512340000    0.05564280150000
C         1.64289745910000   -0.34987237560000    0.03710036420000
C         0.31841723200000   -0.77275564760000    0.03866157810000
C        -0.72288158020000    0.15339193230000    0.01831334870000
C        -2.12823903400000   -0.22688962390000    0.01937960020000
C        -2.65579300280000   -1.44125044030000   -0.00074144610000
F        -2.02700401380000   -2.61083618500000   -0.02698266000000
F        -3.96996357480000   -1.66357545620000    0.00092923050000
C        -0.42279082390000    1.51213443510000   -0.00185538220000
C         0.89906720710000    1.95095917310000   -0.00069883870000
O         1.07072788860000    3.30133594370000   -0.02029055880000
C         2.38082846580000    3.81438144700000   -0.02227556890000
C         1.92635101850000    1.01811118210000    0.02189624010000
H         3.58354449550000   -3.21271690480000   -0.06633560880000
H         1.76934106510000   -3.12828958340000   -0.24402116870000
H         3.73340804830000   -0.82382061170000    0.19127073890000
H         0.10212764090000   -1.82566662980000    0.06620565280000
H        -2.84403570900000    0.58212388890000    0.03446575390000
H        -1.20582196890000    2.25350022450000   -0.01743439120000
H         2.27226512860000    4.89754421720000   -0.04323057120000
H         2.93852273110000    3.49053489800000   -0.90699218200000
H         2.92805443300000    3.52419891840000    0.88049687510000
H         2.95881335600000    1.33190247350000    0.02377549740000
$end

$rem
BASIS = 6-31G*
GUI = 2
METHOD = B3LYP
PRINT_ORBITALS false
MOLDEN_FORMAT false
--------------------------------------------------------------

             Standard Nuclear Orientation (Angstroms)
    I     Atom           X                Y                Z
 ----------------------------------------------------------------
    1      C      -0.1996152867    -3.7055200906     0.0794710837
    2      C      -1.1167068863    -2.7567964286    -0.0633308490
    3      C      -0.8893054879    -1.3149532848    -0.0407437218
    4      C       0.3863323624    -0.7619358130    -0.0413111030
    5      C       0.5611138873     0.6205728195    -0.0170643258
    6      C       1.8696257671     1.2588841913    -0.0169065893
    7      C       3.0659172895     0.6914729825     0.0010197209
    8      F       3.3619710230    -0.6030719347     0.0233949849
    9      F       4.2018307210     1.3887362999     0.0008237242
   10      C      -0.5588667226     1.4462565183     0.0060071214
   11      C      -1.8430201705     0.9069767897     0.0039002811
   12      O      -2.8607828433     1.8108649387     0.0265719286
   13      C      -4.1849157222     1.3352035666     0.0278085757
   14      C      -2.0028401512    -0.4713496840    -0.0225883322
   15      H      -0.4669973700    -4.7479737592     0.0526104163
   16      H       0.8437153221    -3.4912249240     0.2333002660
   17      H      -2.1517874050    -3.0468962398    -0.1993090651
   18      H       1.2419762777    -1.4124323546    -0.0711295396
   19      H       1.8763427431     2.3391187568    -0.0288858018
   20      H      -0.4569947023     2.5196991250     0.0246290113
   21      H      -4.8158380119     2.2222419452     0.0516135379
   22      H      -4.3913901455     0.7218425574     0.9108598491
   23      H      -4.4064953217     0.7592272046    -0.8765220918
   24      H      -2.9867976101    -0.9143705075    -0.0252815625
 ----------------------------------------------------------------

    9    -700.0379788247      6.15e-06  Convergence criterion met
 Total energy in the final basis set =     -700.0379788247

                    Orbital Energies (a.u.)
 --------------------------------------------------------------

 Alpha MOs
 -- Occupied --
-24.7431 -24.7324 -19.1792 -10.3553 -10.2472 -10.2415 -10.2057 -10.2011
-10.1968 -10.1903 -10.1851 -10.1833 -10.1798 -10.1784  -1.2839  -1.2227
 -1.0697  -0.8680  -0.8133  -0.7876  -0.7440  -0.7347  -0.6965  -0.6448
 -0.6302  -0.6012  -0.5748  -0.5570  -0.5350  -0.5174  -0.5058  -0.4953
 -0.4782  -0.4729  -0.4625  -0.4394  -0.4391  -0.4332  -0.4253  -0.4104
 -0.4042  -0.3890  -0.3782  -0.3624  -0.3509  -0.3370  -0.3291  -0.3168
 -0.2605  -0.2193  -0.2146

          Ground-State Mulliken Net Atomic Charges

     Atom                 Charge (a.u.)
  ----------------------------------------
      1 C                    -0.350454
      2 C                    -0.116350
      3 C                     0.185093
      4 C                    -0.266988
      5 C                     0.206455
      6 C                    -0.299487
      7 C                     0.544840
      8 F                    -0.233778
      9 F                    -0.249262
     10 C                    -0.254694
     11 C                     0.390816
     12 O                    -0.510157
     13 C                    -0.213794
     14 C                    -0.278221
     15 H                     0.143900
     16 H                     0.148606
     17 H                     0.124397
     18 H                     0.132783
     19 H                     0.160938
     20 H                     0.134132
     21 H                     0.169900
     22 H                     0.151796
     23 H                     0.151380
     24 H                     0.128150
  ----------------------------------------
  Sum of atomic charges =     0.000000

                    Cartesian Multipole Moments
 -----------------------------------------------------------------
    Charge (ESU x 10^10)
                 0.0000
    Dipole Moment (Debye)
         X      -2.2075      Y      -0.1932      Z      -0.0094
       Tot       2.2159
    Quadrupole Moments (Debye-Ang)
        XX     -70.4776     XY       0.4445     YY     -75.6641
        XZ       0.2529     YZ       0.0146     ZZ     -82.2108

 Total job time:  33.23s(wall), 33.11s(cpu)
        *  Thank you very much for using Q-Chem.  Have a nice day.  *
