 Q-Chem 5.2, Q-Chem, Inc., Pleasanton, CA (2019)
 Q-Chem 5.2.1 for Intel X86 EM64T Linux

User input:
--------------------------------------------------------------
$molecule
0 1
C        -4.17735553420000   -0.48345539880000    0.06225407940000
C        -3.17692519910000    0.38887759490000    0.02599227730000
C        -1.75863255080000    0.06541053770000   -0.00632977480000
C        -1.26187217150000   -1.23604432160000   -0.17013363520000
N         0.01519548200000   -1.52969171220000   -0.16014839310000
C         0.91213093290000   -0.55395586120000   -0.01980653160000
C         2.25837394520000   -0.99919888520000    0.05482009970000
N         3.32744686300000   -1.40464875580000    0.13900335350000
C         0.55414387520000    0.80334510760000    0.09646179780000
C         1.50814597170000    1.90105268350000    0.19699516860000
C         2.73106609640000    1.91827880740000   -0.31665686370000
C        -0.81173842220000    1.07879962290000    0.12247191310000
H        -5.20202984360000   -0.15508746300000    0.08766146690000
H        -4.02152908300000   -1.54841855430000    0.07415761530000
H        -3.39693880740000    1.44984096490000    0.03104238690000
H        -1.92294464810000   -2.07903499670000   -0.31188914220000
H         1.12676186740000    2.77921217830000    0.70474700880000
H         3.14137808790000    1.08809791590000   -0.86470861720000
H         3.36540769560000    2.78172592960000   -0.21206798620000
H        -1.13850546990000    2.10433450710000    0.23591598650000
$end

$rem
BASIS = 6-31G*
GUI = 2
METHOD = B3LYP
PRINT_ORBITALS false
MOLDEN_FORMAT false
--------------------------------------------------------------

             Standard Nuclear Orientation (Angstroms)
    I     Atom           X                Y                Z
 ----------------------------------------------------------------
    1      C       4.1596573244    -0.1390911773    -0.0352912160
    2      C       3.0829127254     0.6365874133     0.0103642129
    3      C       1.7002215437     0.1835291028     0.0218946837
    4      C       1.3241649104    -1.1614389468     0.1523925159
    5      N       0.0796713380    -1.5708771116     0.1236449220
    6      C      -0.9021967867    -0.6787485133    -0.0039914442
    7      C      -2.2011201287    -1.2439927922    -0.1013453826
    8      N      -3.2276497821    -1.7439399927    -0.2047039274
    9      C      -0.6698237267     0.7079874981    -0.0870876144
   10      C      -1.7200476104     1.7153951099    -0.1728114659
   11      C      -2.9432345679     1.6085435045     0.3292494691
   12      C       0.6650537578     1.1082903121    -0.0938643956
   13      H       5.1499096695     0.2825243160    -0.0436066175
   14      H       4.1026402937    -1.2133224382    -0.0719839389
   15      H       3.2043397517     1.7131184570     0.0306411209
   16      H       2.0589460079    -1.9431208216     0.2820648210
   17      H      -1.4172817915     2.6361614891    -0.6575299393
   18      H      -3.2795288385     0.7319692800     0.8550258094
   19      H      -3.6535655347     2.4122037307     0.2374388538
   20      H       0.8968649035     2.1618166503    -0.1816932485
 ----------------------------------------------------------------

    9    -495.3173958708      5.09e-06  Convergence criterion met
 Total energy in the final basis set =     -495.3173958708

                    Orbital Energies (a.u.)
 --------------------------------------------------------------

 Alpha MOs
 -- Occupied --
-14.3516 -14.3323 -10.2647 -10.2392 -10.2326 -10.2275 -10.2243 -10.2227
-10.2146 -10.2099 -10.2051 -10.1986  -0.9780  -0.9077  -0.8530  -0.8363
 -0.7743  -0.7653  -0.6894  -0.6597  -0.6142  -0.5864  -0.5686  -0.5230
 -0.5010  -0.4805  -0.4590  -0.4508  -0.4369  -0.4298  -0.4011  -0.3939
 -0.3796  -0.3662  -0.3588  -0.3367  -0.3292  -0.3245  -0.2754  -0.2668
 -0.2454

          Ground-State Mulliken Net Atomic Charges

     Atom                 Charge (a.u.)
  ----------------------------------------
      1 C                    -0.341488
      2 C                    -0.118147
      3 C                     0.164150
      4 C                    -0.003247
      5 N                    -0.450264
      6 C                     0.224790
      7 C                     0.297906
      8 N                    -0.482193
      9 C                     0.170909
     10 C                    -0.128515
     11 C                    -0.334730
     12 C                    -0.229557
     13 H                     0.157874
     14 H                     0.157468
     15 H                     0.138468
     16 H                     0.150546
     17 H                     0.141234
     18 H                     0.179717
     19 H                     0.156741
     20 H                     0.148337
  ----------------------------------------
  Sum of atomic charges =     0.000000

                    Cartesian Multipole Moments
 -----------------------------------------------------------------
    Charge (ESU x 10^10)
                 0.0000
    Dipole Moment (Debye)
         X       4.1834      Y       3.9933      Z       0.2133
       Tot       5.7872
    Quadrupole Moments (Debye-Ang)
        XX     -69.1328     XY      -9.9953     YY     -69.3244
        XZ      -1.8577     YZ      -1.2888     ZZ     -70.6779

 Total job time:  24.41s(wall), 24.31s(cpu)
        *  Thank you very much for using Q-Chem.  Have a nice day.  *
