 Q-Chem 5.2, Q-Chem, Inc., Pleasanton, CA (2019)
 Q-Chem 5.2.1 for Intel X86 EM64T Linux

User input:
--------------------------------------------------------------
$molecule
0 1
C         3.54472653350000    0.78851901190000   -1.42023114680000
N         3.08593099970000    1.15997572370000   -0.09608518380000
C         1.73347814240000    0.99209438090000    0.18796252470000
C         0.92023017910000    2.03327222680000    0.58978872590000
C        -0.44605017040000    1.84155374940000    0.78336586650000
C        -1.04573384310000    0.62005313180000    0.56959827560000
C        -2.50431684840000    0.55506408160000    0.63612573360000
C        -3.29996083800000   -0.04996370930000   -0.22958300680000
F        -2.94142788130000   -0.73392380810000   -1.31251686590000
F        -4.63295689110000   -0.04116902160000   -0.14358474630000
C         1.17721166080000   -0.32542636210000    0.14062724390000
C        -0.22138446460000   -0.51164034140000    0.30980461010000
C        -0.72935283380000   -1.82694482830000    0.30687112420000
C         0.09106098150000   -2.90748202890000    0.13701496080000
C         1.47125554600000   -2.72535078330000   -0.00047902540000
C         1.99918053420000   -1.46362707050000    0.01192375260000
C         3.74729371040000    2.34451592120000    0.39621501730000
H         2.89368913720000    0.03433296600000   -1.85303258390000
H         4.56225589610000    0.39540305280000   -1.36254594180000
H         3.55113849520000    1.66020547680000   -2.08867783390000
H         1.31810423910000    3.02841975570000    0.70799092410000
H        -1.05761844390000    2.69456745010000    1.04072052380000
H        -2.99372947700000    1.12229985440000    1.41481067190000
H        -1.78208713430000   -1.98521564520000    0.47938405850000
H        -0.31960546290000   -3.90627930850000    0.14147961680000
H         2.11890179490000   -3.58513664940000   -0.08946649230000
H         3.06855643510000   -1.32989799050000   -0.02739786880000
H         4.82396383800000    2.17669174800000    0.34389108560000
H         3.47373780680000    2.51053903290000    1.43633288820000
H         3.51464290080000    3.24561612390000   -0.18836226210000
$end

$rem
BASIS = 6-31G*
GUI = 2
METHOD = B3LYP
PRINT_ORBITALS false
MOLDEN_FORMAT false
--------------------------------------------------------------

             Standard Nuclear Orientation (Angstroms)
    I     Atom           X                Y                Z
 ----------------------------------------------------------------
    1      C      -3.5062846696    -0.1614914243     1.4097559036
    2      N      -3.1363056519     0.4493287743     0.1480704542
    3      C      -1.7790609573     0.6100364670    -0.1166102093
    4      C      -1.2100599747     1.8408366604    -0.3778698851
    5      C       0.1656719218     1.9710245138    -0.5549657613
    6      C       1.0154635220     0.8908669059    -0.4627994598
    7      C       2.4535802285     1.1492450497    -0.4970767981
    8      C       3.3597478686     0.6343414143     0.3167377161
    9      F       3.1558667581    -0.2303186501     1.3066308955
   10      F       4.6593081250     0.9394935677     0.2679849901
   11      C      -0.9505104184    -0.5534952582    -0.2016505801
   12      C       0.4555273180    -0.4138156296    -0.3530283668
   13      C       1.2365356027    -1.5804953713    -0.4832236144
   14      C       0.6695296730    -2.8244030802    -0.4569848302
   15      C      -0.7175964593    -2.9604497140    -0.3370438897
   16      C      -1.5064530898    -1.8489411810    -0.2227663901
   17      C      -4.0377470603     1.5123188372    -0.2265641890
   18      H      -2.7080955874    -0.8025088926     1.7730108576
   19      H      -4.4142849324    -0.7550249815     1.2813534770
   20      H      -3.7028250123     0.6058477259     2.1708484749
   21      H      -1.8139621782     2.7339238287    -0.3949453085
   22      H       0.5782931049     2.9593815140    -0.6990967635
   23      H       2.8099303900     1.8939620271    -1.1942443262
   24      H       2.2988854721    -1.4877362266    -0.6440600760
   25      H       1.2869536131    -3.7042086373    -0.5618310388
   26      H      -1.1636369418    -3.9438248807    -0.3618901792
   27      H      -2.5794655928    -1.9538051993    -0.1974251160
   28      H      -5.0525367464     1.1119395038    -0.2221378011
   29      H      -3.8046309033     1.8514776251    -1.2339716862
   30      H      -4.0071201006     2.3692317777     0.4608954621
 ----------------------------------------------------------------

    9    -795.7143556169      6.13e-06  Convergence criterion met
 Total energy in the final basis set =     -795.7143556169

                    Orbital Energies (a.u.)
 --------------------------------------------------------------

 Alpha MOs
 -- Occupied --
-24.7307 -24.7255 -14.3437 -10.3460 -10.2203 -10.2112 -10.2104 -10.1945
-10.1927 -10.1916 -10.1890 -10.1846 -10.1817 -10.1812 -10.1802 -10.1796
-10.1787  -1.2731  -1.2133  -0.9493  -0.8709  -0.8257  -0.7970  -0.7548
 -0.7416  -0.7235  -0.7128  -0.6641  -0.6218  -0.6153  -0.6119  -0.5756
 -0.5590  -0.5333  -0.5120  -0.5084  -0.5012  -0.4926  -0.4693  -0.4624
 -0.4563  -0.4340  -0.4323  -0.4283  -0.4212  -0.4122  -0.4071  -0.4028
 -0.4000  -0.3901  -0.3820  -0.3768  -0.3749  -0.3355  -0.3341  -0.3243
 -0.2985  -0.2509  -0.2417  -0.2357  -0.1832

          Ground-State Mulliken Net Atomic Charges

     Atom                 Charge (a.u.)
  ----------------------------------------
      1 C                    -0.323669
      2 N                    -0.460356
      3 C                     0.271824
      4 C                    -0.197963
      5 C                    -0.201169
      6 C                     0.123144
      7 C                    -0.345358
      8 C                     0.559417
      9 F                    -0.238221
     10 F                    -0.252378
     11 C                     0.085386
     12 C                     0.072896
     13 C                    -0.187753
     14 C                    -0.135583
     15 C                    -0.131003
     16 C                    -0.197030
     17 C                    -0.308502
     18 H                     0.177613
     19 H                     0.152413
     20 H                     0.139320
     21 H                     0.126196
     22 H                     0.125463
     23 H                     0.164174
     24 H                     0.128496
     25 H                     0.126691
     26 H                     0.124891
     27 H                     0.145712
     28 H                     0.154960
     29 H                     0.165772
     30 H                     0.134616
  ----------------------------------------
  Sum of atomic charges =     0.000000

                    Cartesian Multipole Moments
 -----------------------------------------------------------------
    Charge (ESU x 10^10)
                 0.0000
    Dipole Moment (Debye)
         X      -2.3551      Y       0.6502      Z      -0.0562
       Tot       2.4438
    Quadrupole Moments (Debye-Ang)
        XX     -91.6333     XY      -1.6868     YY     -88.8653
        XZ      -4.5721     YZ      -1.3987     ZZ     -99.2302

 Total job time:  62.13s(wall), 61.70s(cpu)
        *  Thank you very much for using Q-Chem.  Have a nice day.  *
