 Q-Chem 5.2, Q-Chem, Inc., Pleasanton, CA (2019)
 Q-Chem 5.2.1 for Intel X86 EM64T Linux

User input:
--------------------------------------------------------------
$molecule
0 1
C         4.80476272850000    0.21011563160000   -0.00623062020000
C         3.75672738260000   -0.60591058290000    0.00119176450000
C         2.35250323580000   -0.22102822520000    0.00178267900000
C         1.37588003670000   -1.22030950250000    0.00198361260000
C         0.03117889720000   -0.91738062850000    0.00165101110000
C        -0.39438189320000    0.41280264680000    0.00138060270000
C        -1.79035733760000    0.81312264010000    0.00067347550000
C        -2.87033142470000    0.04492351620000   -0.00079773610000
F        -2.93413514210000   -1.28142860800000   -0.00175987540000
F        -4.11009793790000    0.53428073680000   -0.00156736910000
C         0.58004940520000    1.41563249610000    0.00185389560000
C         1.92216384610000    1.10780895490000    0.00202019400000
H         5.81060017000000   -0.17321385170000   -0.00610020060000
H         4.71130189980000    1.28243356860000   -0.01300689240000
H         3.92761913590000   -1.67576245040000    0.00638892070000
H         1.68293402870000   -2.25660644540000    0.00215553350000
H        -0.68787555430000   -1.72011424080000    0.00171937600000
H        -1.98664233480000    1.87595144060000    0.00117338630000
H         0.27115143970000    2.45117991520000    0.00211128220000
H         2.64492558620000    1.90861465930000    0.00262693460000
$end

$rem
BASIS = 6-31G*
GUI = 2
METHOD = B3LYP
PRINT_ORBITALS false
MOLDEN_FORMAT false
--------------------------------------------------------------

             Standard Nuclear Orientation (Angstroms)
    I     Atom           X                Y                Z
 ----------------------------------------------------------------
    1      C       4.6693591118    -0.2119603247     0.0059443836
    2      C       3.6241038217     0.6076254000    -0.0013067658
    3      C       2.2185791982     0.2275195648    -0.0018722459
    4      C       1.2453590917     1.2301154998    -0.0018806498
    5      C      -0.1003641836     0.9317601743    -0.0015146339
    6      C      -0.5304449906    -0.3969685762    -0.0014039857
    7      C      -1.9277733738    -0.7925401817    -0.0006740159
    8      C      -3.0051293345    -0.0206739114     0.0009636173
    9      F      -3.0644231634     1.3058873271     0.0021123617
   10      F      -4.2465524039    -0.5058133312     0.0017350679
   11      C       0.4405711257    -1.4031055173    -0.0020701754
   12      C       1.7837243680    -1.0998467814    -0.0022690681
   13      H       5.6764940135     0.1679472172     0.0058105999
   14      H       4.5722534241    -1.2839552334     0.0125779042
   15      H       3.7986316895     1.6768907783    -0.0063658420
   16      H       1.5559346063     2.2653625162    -0.0019267377
   17      H      -0.8166852668     1.7369338575    -0.0014320001
   18      H      -2.1276707769    -1.8546954121    -0.0013096171
   19      H       0.1281541727    -2.4375966856    -0.0024531883
   20      H       2.5037592356    -1.9031050790    -0.0030267486
 ----------------------------------------------------------------

    9    -585.5166994402      6.01e-06  Convergence criterion met
 Total energy in the final basis set =     -585.5166994402

                    Orbital Energies (a.u.)
 --------------------------------------------------------------

 Alpha MOs
 -- Occupied --
-24.7453 -24.7346 -10.3574 -10.2066 -10.2039 -10.1959 -10.1916 -10.1910
-10.1894 -10.1891 -10.1880 -10.1806  -1.2859  -1.2249  -0.8712  -0.8182
 -0.7777  -0.7530  -0.7236  -0.6508  -0.6227  -0.6092  -0.5723  -0.5660
 -0.5360  -0.5195  -0.4909  -0.4821  -0.4520  -0.4482  -0.4415  -0.4341
 -0.4216  -0.4129  -0.4098  -0.3850  -0.3756  -0.3491  -0.3397  -0.3239
 -0.2684  -0.2566  -0.2096

          Ground-State Mulliken Net Atomic Charges

     Atom                 Charge (a.u.)
  ----------------------------------------
      1 C                    -0.353139
      2 C                    -0.113426
      3 C                     0.180905
      4 C                    -0.201717
      5 C                    -0.192710
      6 C                     0.195704
      7 C                    -0.297901
      8 C                     0.544026
      9 F                    -0.234254
     10 F                    -0.248567
     11 C                    -0.194430
     12 C                    -0.185596
     13 H                     0.144882
     14 H                     0.142378
     15 H                     0.127372
     16 H                     0.130203
     17 H                     0.139182
     18 H                     0.159903
     19 H                     0.128449
     20 H                     0.128738
  ----------------------------------------
  Sum of atomic charges =     0.000000

                    Cartesian Multipole Moments
 -----------------------------------------------------------------
    Charge (ESU x 10^10)
                 0.0000
    Dipole Moment (Debye)
         X       0.8268      Y      -0.5149      Z      -0.0008
       Tot       0.9741
    Quadrupole Moments (Debye-Ang)
        XX     -67.3420     XY       1.0816     YY     -61.0347
        XZ       0.0090     YZ      -0.0131     ZZ     -70.8731

 Total job time:  22.50s(wall), 22.40s(cpu)
        *  Thank you very much for using Q-Chem.  Have a nice day.  *
