 Q-Chem 5.2, Q-Chem, Inc., Pleasanton, CA (2019)
 Q-Chem 5.2.1 for Intel X86 EM64T Linux

User input:
--------------------------------------------------------------
$molecule
0 1
C        -5.90323953220000    0.54697579350000    0.03486527200000
C        -4.87377312670000   -0.29146349150000   -0.00746260310000
C        -3.45918890720000    0.05702396970000   -0.00629711640000
C        -3.00251542300000    1.37653501600000   -0.00372817750000
C        -1.65028966640000    1.68853735370000   -0.00171326310000
C        -0.72935300850000    0.65923752000000   -0.00235796600000
C        -1.17507574010000   -0.67640212460000   -0.00618947310000
C        -2.51573880990000   -0.98238662710000   -0.00901059390000
C        -0.00004542480000   -1.58870114010000   -0.00717157940000
O        -0.00008439500000   -2.79758458430000   -0.01003850400000
C         1.17503024810000   -0.67649568450000   -0.00347448650000
C         2.51570598610000   -0.98247239320000   -0.00264238600000
C         3.45918721400000    0.05692026960000    0.00131195030000
C         4.87372928000000   -0.29167227580000    0.00252836280000
C         5.90356556810000    0.54731114570000    0.01183769430000
C         3.00247984860000    1.37643110420000    0.00391204120000
C         1.65026415800000    1.68841408650000    0.00293476340000
C         0.72932200830000    0.65912996670000   -0.00067380910000
H        -6.91687084150000    0.18495891750000    0.03093720300000
H        -5.78796083920000    1.61647952680000    0.07661578880000
H        -5.06984265530000   -1.35611504480000   -0.04367782620000
H        -3.71892112460000    2.18345015510000   -0.00534799960000
H        -1.33126623240000    2.72028769720000   -0.00020142210000
H        -2.83503775870000   -2.01452119940000   -0.01221458650000
H         2.83499816780000   -2.01461061110000   -0.00484992290000
H         5.06952309050000   -1.35694509050000   -0.00451586750000
H         5.78881228000000    1.61760424210000    0.01989769770000
H         6.91708898190000    0.18496196440000    0.01194695340000
H         3.71882664000000    2.18338012040000    0.00644398110000
H         1.33121928560000    2.72015235400000    0.00484805960000
$end

$rem
BASIS = 6-31G*
GUI = 2
METHOD = B3LYP
PRINT_ORBITALS false
MOLDEN_FORMAT false
--------------------------------------------------------------

             Standard Nuclear Orientation (Angstroms)
    I     Atom           X                Y                Z
 ----------------------------------------------------------------
    1      C       5.9032461478    -0.5201655234     0.0312967993
    2      C       4.8737751230     0.3184450100    -0.0073677306
    3      C       3.4591898225    -0.0300400119    -0.0073846066
    4      C       3.0025118215    -1.3495489986    -0.0101969985
    5      C       1.6502852780    -1.6615529170    -0.0092248388
    6      C       0.7293524161    -0.6322564583    -0.0054360166
    7      C       1.1750794927     0.7033862511    -0.0038173534
    8      C       2.5157431780     1.0093757604    -0.0056185049
    9      C       0.0000524722     1.6156850612    -0.0008036605
   10      O       0.0000954929     2.8245700098     0.0013368077
   11      C      -1.1750259540     0.7034756704    -0.0006681697
   12      C      -2.5157003564     1.0094503613     0.0016788155
   13      C      -3.4591847758    -0.0299469115     0.0015019665
   14      C      -4.8737252726     0.3186418821     0.0044234173
   15      C      -5.9035630031    -0.5203697887     0.0104475837
   16      C      -3.0024819370    -1.3494585772    -0.0014478843
   17      C      -1.6502676318    -1.6614389238    -0.0039670546
   18      C      -0.7293222646    -0.6321514714    -0.0034821552
   19      H       6.9168780862    -0.1581385473     0.0286811741
   20      H       5.7879711118    -1.5898326700     0.0686381940
   21      H       5.0698419966     1.3832368460    -0.0392088917
   22      H       3.7189141551    -2.1564526720    -0.0152914190
   23      H       1.3312582198    -2.6932997070    -0.0119277823
   24      H       2.8350454401     2.0415137842    -0.0046061578
   25      H      -2.8349890300     2.0415898341     0.0038055097
   26      H      -5.0695163445     1.3839353283     0.0018279102
   27      H      -5.7888122838    -1.5906874361     0.0140530207
   28      H      -6.9170850068    -0.1580211039     0.0122448441
   29      H      -3.7188313058    -2.1564089925    -0.0021262305
   30      H      -1.3312263202    -2.6931772301    -0.0063862847
 ----------------------------------------------------------------

    9    -730.2334690315      3.58e-06  Convergence criterion met
 Total energy in the final basis set =     -730.2334690315

                    Orbital Energies (a.u.)
 --------------------------------------------------------------

 Alpha MOs
 -- Occupied --
-19.1430 -10.2731 -10.2070 -10.2067 -10.2062 -10.2062 -10.2031 -10.2031
-10.2022 -10.2022 -10.2014 -10.2014 -10.1962 -10.1962 -10.1938 -10.1938
-10.1860 -10.1860  -1.0434  -0.9007  -0.8683  -0.8296  -0.7909  -0.7815
 -0.7591  -0.7548  -0.7137  -0.6756  -0.6485  -0.6227  -0.5966  -0.5927
 -0.5674  -0.5368  -0.5179  -0.5022  -0.4987  -0.4669  -0.4618  -0.4559
 -0.4458  -0.4453  -0.4328  -0.4294  -0.4249  -0.4215  -0.3890  -0.3802
 -0.3754  -0.3730  -0.3679  -0.3668  -0.3482  -0.3468  -0.3305  -0.2959
 -0.2687  -0.2635  -0.2506  -0.2499  -0.2095

          Ground-State Mulliken Net Atomic Charges

     Atom                 Charge (a.u.)
  ----------------------------------------
      1 C                    -0.354547
      2 C                    -0.108812
      3 C                     0.179622
      4 C                    -0.188669
      5 C                    -0.191781
      6 C                     0.084009
      7 C                     0.047238
      8 C                    -0.259052
      9 C                     0.342368
     10 O                    -0.457559
     11 C                     0.047310
     12 C                    -0.259140
     13 C                     0.179710
     14 C                    -0.108727
     15 C                    -0.354638
     16 C                    -0.188664
     17 C                    -0.191770
     18 C                     0.083930
     19 H                     0.148710
     20 H                     0.143289
     21 H                     0.133872
     22 H                     0.133723
     23 H                     0.136123
     24 H                     0.153889
     25 H                     0.153894
     26 H                     0.133843
     27 H                     0.143292
     28 H                     0.148714
     29 H                     0.133701
     30 H                     0.136121
  ----------------------------------------
  Sum of atomic charges =     0.000000

                    Cartesian Multipole Moments
 -----------------------------------------------------------------
    Charge (ESU x 10^10)
                 0.0000
    Dipole Moment (Debye)
         X       0.0003      Y      -3.2343      Z      -0.0055
       Tot       3.2343
    Quadrupole Moments (Debye-Ang)
        XX     -85.0249     XY       0.0012     YY    -101.1205
        XZ      -0.0035     YZ      -0.0786     ZZ    -107.4423

 Total job time:  60.54s(wall), 60.35s(cpu)
        *  Thank you very much for using Q-Chem.  Have a nice day.  *
