 Q-Chem 5.2, Q-Chem, Inc., Pleasanton, CA (2019)
 Q-Chem 5.2.1 for Intel X86 EM64T Linux

User input:
--------------------------------------------------------------
$molecule
0 1
C        -3.89462604550000   -1.57263940370000    0.76827309720000
C        -2.78892842820000   -1.86547153630000    0.08920846890000
C        -1.70310714340000   -0.95653739790000   -0.15158572270000
C        -0.54814830610000   -1.21368526500000   -0.84290412130000
C         0.33897916430000   -0.12251092450000   -0.91852970410000
C         1.66609407690000   -0.23550525420000   -1.60217335630000
C         2.68797437240000   -0.97003156020000   -0.72343882560000
C         3.04797892840000   -0.18817025010000    0.53667777010000
C         4.04256426010000   -0.94912097030000    1.40440294590000
C        -0.14566810670000    0.99242534180000   -0.26839314480000
C         0.47109320270000    2.28257439770000   -0.12925009550000
C        -0.04384087030000    3.30488679780000    0.54911031320000
S        -1.71155169500000    0.67965959690000    0.43146132390000
H        -4.67620262200000   -2.29620830860000    0.91737456470000
H        -4.04701822500000   -0.59508601300000    1.19517383780000
H        -2.65088989920000   -2.85302978180000   -0.33362214050000
H        -0.34148397100000   -2.16947400190000   -1.29356517380000
H         2.05279043540000    0.75079140540000   -1.86092416880000
H         1.53253583590000   -0.79778557260000   -2.52992470060000
H         3.59357955740000   -1.14654587160000   -1.30881458080000
H         2.27992280320000   -1.94248445200000   -0.43822617120000
H         2.14146131680000    0.00961308880000    1.11258131560000
H         3.47778691770000    0.77587419560000    0.25452585990000
H         3.62388691520000   -1.90359833760000    1.71636079720000
H         4.28956065970000   -0.37597156090000    2.29487325960000
H         4.96135200620000   -1.14235952180000    0.85428758250000
H         1.42709711950000    2.39430067220000   -0.62302628290000
H        -0.99089892420000    3.22399561010000    1.05652419120000
H         0.46466083480000    4.25010682680000    0.61826318920000
$end

$rem
BASIS = 6-31G*
GUI = 2
METHOD = B3LYP
PRINT_ORBITALS false
MOLDEN_FORMAT false
--------------------------------------------------------------

             Standard Nuclear Orientation (Angstroms)
    I     Atom           X                Y                Z
 ----------------------------------------------------------------
    1      C       4.1058485561     1.1626221786     0.7737974709
    2      C       3.0123586314     1.6008111345     0.1559650731
    3      C       1.8512528242     0.8052017395    -0.1303738315
    4      C       0.7055058851     1.2129266431    -0.7620386351
    5      C      -0.2686227640     0.2060375494    -0.9056476417
    6      C      -1.5974224894     0.4834993730    -1.5370560509
    7      C      -2.5361606092     1.2151321254    -0.5678156958
    8      C      -2.9295846345     0.3550903763     0.6298278027
    9      C      -3.8392336543     1.1117907740     1.5895861735
   10      C       0.1387391858    -0.9969736202    -0.3694911641
   11      C      -0.5772221747    -2.2418114064    -0.3245678537
   12      C      -0.1315326022    -3.3577483090     0.2468323751
   13      S       1.7403327275    -0.8719268513     0.3079094067
   14      H       4.9466814748     1.8062830834     0.9618022449
   15      H       4.1881898857     0.1420288107     1.1094868112
   16      H       2.9452233980     2.6298466493    -0.1752303641
   17      H       0.5667806860     2.2182947412    -1.1216605863
   18      H      -2.0685623825    -0.4423656191    -1.8688215928
   19      H      -1.4398754076     1.1137855080    -2.4160542432
   20      H      -3.4375633783     1.5137433691    -1.1084146239
   21      H      -2.0442612380     2.1232170809    -0.2115381492
   22      H      -2.0292117994     0.0361311148     1.1591207936
   23      H      -3.4424121679    -0.5432050817     0.2779762820
   24      H      -3.3375945563     1.9988126374     1.9706188412
   25      H      -4.1115452310     0.4829578768     2.4338968030
   26      H      -4.7516147594     1.4249101669     1.0859435045
   27      H      -1.5501202072    -2.2335785942    -0.7974767369
   28      H       0.8302626612    -3.3971064459     0.7309108745
   29      H      -0.7132575441    -4.2623970256     0.2487814982
 ----------------------------------------------------------------

    9    -865.0614814522      2.02e-06  Convergence criterion met
 Total energy in the final basis set =     -865.0614814522

                    Orbital Energies (a.u.)
 --------------------------------------------------------------

 Alpha MOs
 -- Occupied --
-88.8963 -10.2160 -10.2127 -10.1970 -10.1949 -10.1923 -10.1878 -10.1858
-10.1811 -10.1797 -10.1787 -10.1735 -10.1673  -7.9584  -5.9226  -5.9189
 -5.9151  -0.8888  -0.8132  -0.7992  -0.7734  -0.7500  -0.7136  -0.6952
 -0.6341  -0.6250  -0.5825  -0.5675  -0.5451  -0.5167  -0.4956  -0.4664
 -0.4597  -0.4382  -0.4317  -0.4273  -0.4228  -0.3995  -0.3911  -0.3850
 -0.3791  -0.3641  -0.3570  -0.3495  -0.3350  -0.3326  -0.3236  -0.3205
 -0.3147  -0.2672  -0.2429  -0.1961

          Ground-State Mulliken Net Atomic Charges

     Atom                 Charge (a.u.)
  ----------------------------------------
      1 C                    -0.373962
      2 C                    -0.055387
      3 C                    -0.134408
      4 C                    -0.177865
      5 C                     0.156485
      6 C                    -0.346260
      7 C                    -0.245383
      8 C                    -0.255129
      9 C                    -0.441356
     10 C                    -0.208932
     11 C                    -0.049751
     12 C                    -0.378377
     13 S                     0.236871
     14 H                     0.146437
     15 H                     0.157264
     16 H                     0.137206
     17 H                     0.132248
     18 H                     0.143174
     19 H                     0.144758
     20 H                     0.130774
     21 H                     0.135146
     22 H                     0.153952
     23 H                     0.126562
     24 H                     0.143209
     25 H                     0.143692
     26 H                     0.139923
     27 H                     0.137489
     28 H                     0.157123
     29 H                     0.144499
  ----------------------------------------
  Sum of atomic charges =     0.000000

                    Cartesian Multipole Moments
 -----------------------------------------------------------------
    Charge (ESU x 10^10)
                 0.0000
    Dipole Moment (Debye)
         X      -0.8099      Y       0.7748      Z      -0.4579
       Tot       1.2107
    Quadrupole Moments (Debye-Ang)
        XX     -83.2081     XY       3.1836     YY     -81.4951
        XZ       3.5735     YZ      -2.2232     ZZ     -88.5866

 Total job time:  42.08s(wall), 41.95s(cpu)
        *  Thank you very much for using Q-Chem.  Have a nice day.  *
