 Q-Chem 5.2, Q-Chem, Inc., Pleasanton, CA (2019)
 Q-Chem 5.2.1 for Intel X86 EM64T Linux

User input:
--------------------------------------------------------------
$molecule
0 1
C         7.10162403200000    0.50706545640000   -0.27758470730000
C         6.14950813370000   -0.36725423490000    0.02915905580000
C         4.71422898330000   -0.12793226380000    0.02907063760000
C         4.14664737800000    1.12905218950000   -0.19205606600000
C         2.78073459830000    1.29887315470000   -0.18141101370000
C         1.91026232800000    0.22531017170000    0.04136664380000
C         0.48301045140000    0.46773420600000    0.03327638930000
C        -0.48266292180000   -0.46443090270000    0.06377692170000
C        -1.90983126190000   -0.22170694180000    0.04942860950000
C        -2.78023715610000   -1.30780628700000   -0.10123746950000
C        -4.14604423810000   -1.13879946490000   -0.12739011270000
C        -4.71383218330000    0.13062955490000    0.00446914200000
C        -6.14881364870000    0.37048840960000   -0.01387694060000
C        -7.10511563340000   -0.53246686390000   -0.20190277820000
C        -3.84648258150000    1.21497216910000    0.16636214420000
C        -2.48007748840000    1.04766257580000    0.18721158400000
C         2.48044775950000   -1.03081209810000    0.27050074360000
C         3.84700756570000   -1.19830372900000    0.26654271460000
H         8.14232641090000    0.23286529850000   -0.25142202330000
H         6.89043441340000    1.52149261670000   -0.56936503440000
H         6.43596324930000   -1.37582510100000    0.30359625430000
H         4.78262685490000    1.98326606880000   -0.36670138050000
H         2.36650708920000    2.28285436160000   -0.35389661530000
H         0.20851747600000    1.51301041770000   -0.02563797290000
H        -0.20825075860000   -1.51128263220000    0.07898605270000
H        -2.36600728490000   -2.30142589130000   -0.20469294230000
H        -4.78150553990000   -2.00276069420000   -0.24722231240000
H        -6.43200059300000    1.40510662810000    0.14095057750000
H        -6.89882198600000   -1.57602198330000   -0.36666930930000
H        -8.14504904200000   -0.25418224320000   -0.19953284440000
H        -4.26144763100000    2.20741078660000    0.27825647170000
H        -1.84729330390000    1.91135838110000    0.32335442110000
H         1.84743040710000   -1.88297493780000    0.46552463980000
H         4.26211194400000   -2.18000313610000    0.44980613910000
$end

$rem
BASIS = 6-31G*
GUI = 2
METHOD = B3LYP
PRINT_ORBITALS false
MOLDEN_FORMAT false
--------------------------------------------------------------

             Standard Nuclear Orientation (Angstroms)
    I     Atom           X                Y                Z
 ----------------------------------------------------------------
    1      C       7.1103378619    -0.3786204325     0.2571618837
    2      C       6.1411766659     0.4879879737    -0.0162751092
    3      C       4.7108385471     0.2208769982    -0.0255404204
    4      C       4.1680065239    -1.0544421046     0.1475214015
    5      C       2.8056599402    -1.2503539777     0.1301858008
    6      C       1.9142883797    -0.1862844272    -0.0517539394
    7      C       0.4920410441    -0.4566423008    -0.0531397719
    8      C      -0.4916466995     0.4569891790    -0.0483358083
    9      C      -1.9138011180     0.1860953018    -0.0434795028
   10      C      -2.8051391731     1.2484897625     0.1482311044
   11      C      -4.1673751030     1.0519940107     0.1676975584
   12      C      -4.7103707646    -0.2223389881    -0.0124445230
   13      C      -6.1403904361    -0.4906748495    -0.0034857454
   14      C      -7.1140150165     0.3856462323     0.2185772312
   15      C      -3.8221290461    -1.2826110192    -0.2153076556
   16      C      -2.4592591107    -1.0880009470    -0.2295391867
   17      C       2.4597360111     1.0885285890    -0.2328496978
   18      C       3.8227711395     1.2823801745    -0.2222847575
   19      H       8.1454792881    -0.0833703475     0.2416290396
   20      H       6.9191391855    -1.4073369931     0.5101136219
   21      H       6.4077505605     1.5116626056    -0.2521057853
   22      H       4.8206244742    -1.9021079138     0.2896647069
   23      H       2.4108005998    -2.2480774347     0.2650514092
   24      H       0.2380207641    -1.5085594510    -0.0340698743
   25      H      -0.2377131751     1.5088168111    -0.0236721893
   26      H      -2.4103090674     2.2453493882     0.2894734969
   27      H      -4.8194981926     1.8982100036     0.3201895171
   28      H      -6.4034320422    -1.5239852171    -0.1975992726
   29      H      -6.9280207404     1.4260070762     0.4229489750
   30      H      -8.1483241265     0.0874154569     0.2054428961
   31      H      -4.2177220069    -2.2779841695    -0.3649380115
   32      H      -1.8098270497    -1.9333837330    -0.3983203575
   33      H       1.8101080752     1.9349779834    -0.3954343262
   34      H       4.2185455780     2.2782508841    -0.3680070182
 ----------------------------------------------------------------

    8    -695.5077757924      6.02e-06  Convergence criterion met
 Total energy in the final basis set =     -695.5077757924

                    Orbital Energies (a.u.)
 --------------------------------------------------------------

 Alpha MOs
 -- Occupied --
-10.1958 -10.1958 -10.1941 -10.1941 -10.1901 -10.1897 -10.1897 -10.1893
-10.1874 -10.1874 -10.1874 -10.1874 -10.1865 -10.1865 -10.1864 -10.1864
-10.1795 -10.1795  -0.8694  -0.8646  -0.8169  -0.7971  -0.7681  -0.7507
 -0.7498  -0.7360  -0.7018  -0.6499  -0.6231  -0.6114  -0.5981  -0.5759
 -0.5617  -0.5530  -0.5094  -0.5058  -0.4846  -0.4695  -0.4601  -0.4486
 -0.4465  -0.4396  -0.4212  -0.4211  -0.4152  -0.4036  -0.3915  -0.3852
 -0.3788  -0.3772  -0.3561  -0.3501  -0.3424  -0.3380  -0.3324  -0.3298
 -0.3065  -0.2684  -0.2542  -0.2540  -0.2320  -0.1926

          Ground-State Mulliken Net Atomic Charges

     Atom                 Charge (a.u.)
  ----------------------------------------
      1 C                    -0.352702
      2 C                    -0.114463
      3 C                     0.180162
      4 C                    -0.184560
      5 C                    -0.200807
      6 C                     0.190713
      7 C                    -0.190785
      8 C                    -0.190792
      9 C                     0.190699
     10 C                    -0.200814
     11 C                    -0.184596
     12 C                     0.180779
     13 C                    -0.114225
     14 C                    -0.353088
     15 C                    -0.201381
     16 C                    -0.179952
     17 C                    -0.179965
     18 C                    -0.201005
     19 H                     0.144380
     20 H                     0.142615
     21 H                     0.126766
     22 H                     0.127382
     23 H                     0.126839
     24 H                     0.128250
     25 H                     0.128235
     26 H                     0.126842
     27 H                     0.127279
     28 H                     0.126598
     29 H                     0.142590
     30 H                     0.144412
     31 H                     0.128058
     32 H                     0.129248
     33 H                     0.129260
     34 H                     0.128025
  ----------------------------------------
  Sum of atomic charges =     0.000000

                    Cartesian Multipole Moments
 -----------------------------------------------------------------
    Charge (ESU x 10^10)
                 0.0000
    Dipole Moment (Debye)
         X       0.0049      Y       0.0010      Z      -0.0114
       Tot       0.0124
    Quadrupole Moments (Debye-Ang)
        XX     -95.6770     XY       0.2778     YY     -93.3531
        XZ       0.0018     YZ      -0.0611     ZZ    -112.4991

 Total job time:  49.30s(wall), 48.72s(cpu)
        *  Thank you very much for using Q-Chem.  Have a nice day.  *
