 Q-Chem 5.2, Q-Chem, Inc., Pleasanton, CA (2019)
 Q-Chem 5.2.1 for Intel X86 EM64T Linux

User input:
--------------------------------------------------------------
$molecule
0 1
C        -5.91824199700000   -2.29134176780000   -0.95516439190000
C        -5.42867325190000   -1.10836605870000   -0.60099867530000
C        -4.04935156350000   -0.80592833310000   -0.25499992960000
C        -3.69270754480000    0.49299856810000    0.09827130330000
C        -2.39304525110000    0.82585047940000    0.42434140370000
C        -1.36683799480000   -0.12337098650000    0.43608887850000
C        -1.73823276210000   -1.43240346860000    0.10294241900000
C        -3.03261750050000   -1.76037190860000   -0.24606814030000
S        -0.58967229400000   -2.77571139090000    0.18496716910000
C         0.93664647830000   -1.89242661050000    0.04155944220000
C         2.03014149600000   -2.63162473690000   -0.36182904000000
C         3.30616069970000   -2.07227520070000   -0.42215663540000
C         4.48839468720000   -2.81594055460000   -0.82590292110000
C         4.53746209450000   -4.09062315560000   -1.19643792570000
C         3.42048477010000   -0.73204506540000   -0.06186073960000
C         2.32290493570000    0.01390376480000    0.31933618390000
C         1.03945373420000   -0.53734736000000    0.38183897700000
N        -0.06058562440000    0.22192539290000    0.77493325630000
C         0.17417697890000    1.48519541250000    1.44421343770000
C         0.37064576610000    2.68687349630000    0.50825672380000
C         0.71262038580000    3.94214266310000    1.30798785700000
C         0.83743736630000    5.19401683500000    0.43931000930000
C         2.04788874570000    5.17047205700000   -0.49204719760000
C         2.19436130260000    6.48427302290000   -1.25011594070000
H        -6.96022462630000   -2.41605716100000   -1.19474054030000
H        -5.31049104950000   -3.17711389000000   -1.02075205120000
H        -6.09702525490000   -0.25657008240000   -0.55508289280000
H        -4.44679508410000    1.26691914080000    0.11422305490000
H        -2.19165228290000    1.85225514180000    0.67748524590000
H        -3.24220214440000   -2.78972648380000   -0.48954664000000
H         1.87239743430000   -3.66984640190000   -0.60675941660000
H         5.40509851820000   -2.23820810750000   -0.81149204930000
H         3.66549244130000   -4.72033437500000   -1.23310247930000
H         5.46627261180000   -4.55496957010000   -1.47993907580000
H         4.38998200090000   -0.25515390940000   -0.08418611320000
H         2.48940460860000    1.04586112600000    0.57527793800000
H         1.05947757370000    1.36844651040000    2.07632188280000
H        -0.66981670360000    1.67364959230000    2.11409568990000
H        -0.53560130830000    2.86328192340000   -0.07291093360000
H         1.16580431380000    2.46896375620000   -0.20409720570000
H         1.64955795980000    3.78499440100000    1.84841253520000
H        -0.07059477700000    4.10793356680000    2.05253925860000
H         0.92046109440000    6.06424036650000    1.09504354240000
H        -0.07213436760000    5.31492203520000   -0.15371142440000
H         1.94794373750000    4.35551906940000   -1.21093132550000
H         2.95076917590000    4.98948991520000    0.09612668520000
H         1.30824099540000    6.67811240990000   -1.85071822330000
H         3.05646751080000    6.45073085410000   -1.91210339390000
H         2.32541498940000    7.31316162590000   -0.55771327820000
$end

$rem
BASIS = 6-31G*
GUI = 2
METHOD = B3LYP
PRINT_ORBITALS false
MOLDEN_FORMAT false
--------------------------------------------------------------

             Standard Nuclear Orientation (Angstroms)
    I     Atom           X                Y                Z
 ----------------------------------------------------------------
    1      C       5.5923621994     3.1263546212     0.9702702805
    2      C       4.3499230379     3.4946817353     0.6783413403
    3      C       3.2471936084     2.6212836638     0.3110871447
    4      C       1.9961832817     3.1653613101     0.0315173109
    5      C       0.9195823242     2.3719487684    -0.3115003268
    6      C       1.0279961923     0.9820750587    -0.4152222214
    7      C       2.2954297153     0.4446112397    -0.1559316816
    8      C       3.3656617855     1.2354402016     0.2101234891
    9      S       2.6349087576    -1.2799165730    -0.3587941614
   10      C       1.0011200187    -1.9413326652    -0.2049439629
   11      C       0.9163439038    -3.2807708945     0.1169034101
   12      C      -0.3109527169    -3.9404310407     0.1745907298
   13      C      -0.4471872573    -5.3522566207     0.4938321820
   14      C       0.5340192779    -6.2007199195     0.7799498139
   15      C      -1.4444661224    -3.1803441448    -0.1020231009
   16      C      -1.3617473411    -1.8349458916    -0.4011775566
   17      C      -0.1362679037    -1.1643213231    -0.4602895266
   18      N      -0.0628551389     0.1919822174    -0.7703799785
   19      C      -1.2204609273     0.8297333784    -1.3637794046
   20      C      -2.2548895750     1.3575884656    -0.3588059963
   21      C      -3.4767939210     1.9145879947    -1.0860738293
   22      C      -4.5083492574     2.5338899612    -0.1428198412
   23      C      -5.2100812565     1.5107213003     0.7481746807
   24      C      -6.3071486395     2.1582671620     1.5844299773
   25      H       6.3433230791     3.8515455530     1.2326332535
   26      H       5.9127067524     2.0989613768     0.9603861269
   27      H       4.0943967529     4.5474000138     0.7074890330
   28      H       1.8558063787     4.2353823558     0.0881283960
   29      H      -0.0183069862     2.8633111651    -0.5040466854
   30      H       4.3106316486     0.7492972463     0.3930861331
   31      H       1.8361997468    -3.8131415007     0.2991808633
   32      H      -1.4686882755    -5.7139755012     0.4889856775
   33      H       1.5692861287    -5.9075739687     0.8023012019
   34      H       0.3318651873    -7.2337876050     1.0048594681
   35      H      -2.4184072103    -3.6480242619    -0.0783051147
   36      H      -2.2824646990    -1.3126090212    -0.5951055292
   37      H      -1.6974712564     0.1033958999    -2.0284925374
   38      H      -0.8667650212     1.6505866736    -1.9943994326
   39      H      -1.8133199362     2.1403998399     0.2595645604
   40      H      -2.5538754878     0.5541720736     0.3137558348
   41      H      -3.9511849017     1.1169982179    -1.6634906389
   42      H      -3.1453533240     2.6785244330    -1.7944647197
   43      H      -5.2632350967     3.0473086100    -0.7434170952
   44      H      -4.0208083305     3.2843125467     0.4839041930
   45      H      -4.4860521463     1.0406663263     1.4158287341
   46      H      -5.6462010921     0.7281738264     0.1226228736
   47      H      -5.8911002894     2.9348110471     2.2227005889
   48      H      -6.7938221080     1.4192839121     2.2165947272
   49      H      -7.0605362256     2.6108362215     0.9431490533
 ----------------------------------------------------------------

    9   -1306.3084905437      3.16e-06  Convergence criterion met
 Total energy in the final basis set =    -1306.3084905437

                    Orbital Energies (a.u.)
 --------------------------------------------------------------

 Alpha MOs
 -- Occupied --
-88.8867 -14.3759 -10.2392 -10.2390 -10.2279 -10.2198 -10.2197 -10.1902
-10.1901 -10.1892 -10.1891 -10.1891 -10.1889 -10.1882 -10.1871 -10.1871
-10.1870 -10.1868 -10.1868 -10.1820 -10.1811 -10.1747 -10.1747 -10.1726
 -7.9482  -5.9131  -5.9094  -5.9033  -0.9818  -0.8708  -0.8677  -0.8217
 -0.8121  -0.7983  -0.7779  -0.7720  -0.7571  -0.7360  -0.7285  -0.7112
 -0.6850  -0.6598  -0.6416  -0.6162  -0.6142  -0.6036  -0.5855  -0.5749
 -0.5690  -0.5470  -0.5413  -0.5181  -0.4889  -0.4835  -0.4748  -0.4684
 -0.4650  -0.4586  -0.4469  -0.4440  -0.4406  -0.4316  -0.4260  -0.4189
 -0.4164  -0.4091  -0.4027  -0.3999  -0.3852  -0.3819  -0.3799  -0.3716
 -0.3693  -0.3621  -0.3546  -0.3522  -0.3463  -0.3409  -0.3337  -0.3324
 -0.3312  -0.3194  -0.3169  -0.3051  -0.3024  -0.2647  -0.2590  -0.2253
 -0.2157  -0.1728

          Ground-State Mulliken Net Atomic Charges

     Atom                 Charge (a.u.)
  ----------------------------------------
      1 C                    -0.356399
      2 C                    -0.116738
      3 C                     0.203726
      4 C                    -0.218747
      5 C                    -0.175376
      6 C                     0.337080
      7 C                    -0.111420
      8 C                    -0.253684
      9 S                     0.175018
     10 C                    -0.111519
     11 C                    -0.254217
     12 C                     0.203885
     13 C                    -0.116462
     14 C                    -0.356477
     15 C                    -0.219497
     16 C                    -0.177441
     17 C                     0.337667
     18 N                    -0.604080
     19 C                    -0.171239
     20 C                    -0.279336
     21 C                    -0.263819
     22 C                    -0.246858
     23 C                    -0.254642
     24 C                    -0.441215
     25 H                     0.142111
     26 H                     0.142248
     27 H                     0.124121
     28 H                     0.127051
     29 H                     0.132287
     30 H                     0.140677
     31 H                     0.140756
     32 H                     0.124071
     33 H                     0.142281
     34 H                     0.142139
     35 H                     0.127161
     36 H                     0.134459
     37 H                     0.161073
     38 H                     0.160936
     39 H                     0.148547
     40 H                     0.157710
     41 H                     0.131976
     42 H                     0.131220
     43 H                     0.130470
     44 H                     0.130137
     45 H                     0.139360
     46 H                     0.130005
     47 H                     0.143953
     48 H                     0.143976
     49 H                     0.143066
  ----------------------------------------
  Sum of atomic charges =     0.000000

                    Cartesian Multipole Moments
 -----------------------------------------------------------------
    Charge (ESU x 10^10)
                 0.0000
    Dipole Moment (Debye)
         X      -2.6680      Y       1.3981      Z      -0.3388
       Tot       3.0311
    Quadrupole Moments (Debye-Ang)
        XX    -143.9932     XY       0.5746     YY    -142.8676
        XZ       4.2604     YZ      -1.9637     ZZ    -156.1886

 Total job time:  134.31s(wall), 133.59s(cpu)
        *  Thank you very much for using Q-Chem.  Have a nice day.  *
