 Q-Chem 5.2, Q-Chem, Inc., Pleasanton, CA (2019)
 Q-Chem 5.2.1 for Intel X86 EM64T Linux

User input:
--------------------------------------------------------------
$molecule
0 1
C        -2.41821148230000    3.56921011240000    0.06586730580000
C        -2.99327240130000    2.37395031090000    0.03907993540000
C        -2.24639678380000    1.13749050590000    0.01920920430000
N        -2.85489590290000   -0.07809489880000   -0.00984976520000
C        -1.88550977290000   -0.95967280280000   -0.01817047900000
C        -2.20741265940000   -2.36459072390000   -0.05935280610000
C        -1.40231480520000   -3.42034421710000   -0.08170306600000
N        -0.67340154350000   -0.27734565200000    0.00517906650000
C         0.67693963460000   -0.67544070620000    0.01651182740000
O         1.03085161510000   -1.82259661980000    0.06316089020000
O         1.43306680250000    0.39583252440000   -0.02855718930000
C         2.88283575780000    0.29366679130000   -0.01295020550000
C         3.36768061950000   -0.48275451140000   -1.23581984350000
C         3.34511213200000    1.74831006610000   -0.07643360700000
C         3.34690623390000   -0.36631874760000    1.28404282610000
N        -0.93661946930000    1.04748354430000    0.02704626060000
H        -2.99675974430000    4.47670376900000    0.08054192200000
H        -1.34570171960000    3.66158277850000    0.07363733280000
H        -4.06603400430000    2.24632982120000    0.03046280260000
H        -3.28197753720000   -2.49681141610000   -0.07563670510000
H        -0.33139509110000   -3.33953709840000   -0.06362212040000
H        -1.81796811070000   -4.41339178230000   -0.11666220880000
H         2.97626822840000   -0.03058300590000   -2.14456015460000
H         3.03899144570000   -1.51734787090000   -1.18755041320000
H         4.45312784030000   -0.46143563730000   -1.27214386510000
H         2.97405006830000    2.21600947140000   -0.98402845540000
H         4.42985305470000    1.79530371160000   -0.06775837880000
H         2.95615362250000    2.29800986570000    0.77599030000000
H         3.01692297520000   -1.40080031140000    1.32654501900000
H         2.94164037430000    0.16834614020000    2.14038634980000
H         4.43166363810000   -0.34230365320000    1.33580999330000
$end

$rem
BASIS = 6-31G*
GUI = 2
METHOD = B3LYP
PRINT_ORBITALS false
MOLDEN_FORMAT false
--------------------------------------------------------------

             Standard Nuclear Orientation (Angstroms)
    I     Atom           X                Y                Z
 ----------------------------------------------------------------
    1      C      -2.8701089095    -3.2600345762    -0.0085166740
    2      C      -3.3092128617    -2.0081694665     0.0004322496
    3      C      -2.4299719212    -0.8618770815     0.0002910339
    4      N      -2.9000513207     0.4139242568     0.0112354916
    5      C      -1.8389953972     1.1827395593     0.0047808910
    6      C      -2.0032438044     2.6151299219     0.0245830999
    7      C      -1.0861399537     3.5754383992     0.0296509267
    8      N      -0.7099607952     0.3700887491    -0.0094117085
    9      C       0.6761175327     0.6159603462    -0.0284754883
   10      O       1.1547338307     1.7160158599    -0.0932892298
   11      O       1.3091079515    -0.5316528778     0.0322934410
   12      C       2.7612240678    -0.5909325360     0.0134216207
   13      C       3.3325620733     0.1455802316     1.2235606859
   14      C       3.0597769226    -2.0866864756     0.0988791574
   15      C       3.2917924879    -0.0062700243    -1.2941716423
   16      N      -1.1183100615    -0.9176161962    -0.0104608512
   17      H      -3.5456193797    -4.0979867078    -0.0084682939
   18      H      -1.8144480475    -3.4707307450    -0.0161023652
   19      H      -4.3612188643    -1.7624056331     0.0083195713
   20      H      -3.0565106413     2.8657818081     0.0400671449
   21      H      -0.0308083815     3.3762540617     0.0115783632
   22      H      -1.3891830384     4.6088287270     0.0497157697
   23      H       2.8961002055    -0.2465417310     2.1396464285
   24      H       3.1203092638     1.2093545159     1.1596627411
   25      H       4.4090745622     0.0047322764     1.2589487194
   26      H       2.6418176002    -2.4965103339     1.0140363065
   27      H       4.1326155602    -2.2536565661     0.0896716520
   28      H       2.6099014545    -2.6028669840    -0.7444801107
   29      H       3.0782577270     1.0576244795    -1.3522998098
   30      H       2.8273634568    -0.5057635850    -2.1416638532
   31      H       4.3670680867    -0.1510648953    -1.3468216401
 ----------------------------------------------------------------

    9    -742.8715091025      8.06e-06  Convergence criterion met
 Total energy in the final basis set =     -742.8715091025

                    Orbital Energies (a.u.)
 --------------------------------------------------------------

 Alpha MOs
 -- Occupied --
-19.2028 -19.1537 -14.4349 -14.3532 -14.3243 -10.3661 -10.2700 -10.2662
-10.2406 -10.2006 -10.1929 -10.1862 -10.1851 -10.1828 -10.1805 -10.1805
 -1.1434  -1.0798  -1.0467  -0.9182  -0.8588  -0.8244  -0.7821  -0.7688
 -0.7060  -0.7034  -0.6971  -0.6517  -0.6315  -0.5975  -0.5707  -0.5290
 -0.5224  -0.5112  -0.4966  -0.4750  -0.4715  -0.4661  -0.4550  -0.4405
 -0.4386  -0.4275  -0.4086  -0.4032  -0.3963  -0.3810  -0.3771  -0.3714
 -0.3645  -0.3617  -0.3473  -0.3328  -0.3285  -0.3222  -0.3103  -0.2929
 -0.2692  -0.2645  -0.2310

          Ground-State Mulliken Net Atomic Charges

     Atom                 Charge (a.u.)
  ----------------------------------------
      1 C                    -0.335540
      2 C                    -0.087161
      3 C                     0.436281
      4 N                    -0.534649
      5 C                     0.534442
      6 C                    -0.105799
      7 C                    -0.350194
      8 N                    -0.462900
      9 C                     0.830119
     10 O                    -0.483238
     11 O                    -0.454989
     12 C                     0.296455
     13 C                    -0.470376
     14 C                    -0.448884
     15 C                    -0.470500
     16 N                    -0.327348
     17 H                     0.147348
     18 H                     0.169296
     19 H                     0.148750
     20 H                     0.159870
     21 H                     0.209492
     22 H                     0.146711
     23 H                     0.154497
     24 H                     0.184791
     25 H                     0.150152
     26 H                     0.161576
     27 H                     0.149216
     28 H                     0.162334
     29 H                     0.184773
     30 H                     0.155294
     31 H                     0.150180
  ----------------------------------------
  Sum of atomic charges =     0.000000

                    Cartesian Multipole Moments
 -----------------------------------------------------------------
    Charge (ESU x 10^10)
                 0.0000
    Dipole Moment (Debye)
         X       2.3128      Y      -0.6692      Z       0.0811
       Tot       2.4090
    Quadrupole Moments (Debye-Ang)
        XX     -87.3231     XY      -1.4386     YY     -88.3818
        XZ       0.1177     YZ       0.3649     ZZ     -94.5814

 Total job time:  53.57s(wall), 53.22s(cpu)
        *  Thank you very much for using Q-Chem.  Have a nice day.  *
