 Q-Chem 5.2, Q-Chem, Inc., Pleasanton, CA (2019)
 Q-Chem 5.2.1 for Intel X86 EM64T Linux

User input:
--------------------------------------------------------------
$molecule
0 1
C         3.10214834500000    2.45084647850000   -0.02745538640000
C         2.66251149910000    1.19511900120000   -0.01476477700000
C         1.27199002510000    0.82789851110000   -0.01646285000000
S         0.04503314640000    2.05192037380000   -0.08978922550000
C        -1.22142601830000    0.87323737710000   -0.04795277740000
C        -2.60319143160000    1.27480403500000   -0.15198897210000
C        -3.02520943300000    2.53272856730000   -0.04978135470000
C        -0.70440989520000   -0.41204048790000   -0.00240668350000
C        -1.58032000300000   -1.60502523750000    0.03107217880000
O        -1.39009481010000   -2.58360349300000   -0.65274279330000
O        -2.63122163960000   -1.55699811030000    0.85447945470000
C         0.72205144010000   -0.44180691450000   -0.00088068440000
C         1.61077420030000   -1.64949929020000    0.08183719950000
O         2.66234855430000   -1.60631223240000    0.66852101210000
O         1.22841105810000   -2.74809752720000   -0.54848889100000
H         4.15362396550000    2.67459546860000   -0.02517712550000
H         2.42766027710000    3.29300085910000   -0.03771308660000
H         3.35360881450000    0.36570251220000    0.01663656190000
H        -3.31624321800000    0.48577943580000   -0.35540903610000
H        -2.34205859680000    3.34362541470000    0.14104565210000
H        -4.06499610880000    2.78506597630000   -0.15373485090000
H        -2.66346315050000   -0.75108300510000    1.38847644070000
H         0.29238745020000   -2.75143986150000   -0.85691945170000
$end

$rem
BASIS = 6-31G*
GUI = 2
METHOD = B3LYP
PRINT_ORBITALS false
MOLDEN_FORMAT false
--------------------------------------------------------------

             Standard Nuclear Orientation (Angstroms)
    I     Atom           X                Y                Z
 ----------------------------------------------------------------
    1      C       3.1273255210    -2.3906260683     0.0221069728
    2      C       2.6793729123    -1.1378447845     0.0090447937
    3      C       1.2864681098    -0.7798052988     0.0143058953
    4      S       0.0678368977    -2.0117973426     0.0928108807
    5      C      -1.2064924259    -0.8415532126     0.0531099707
    6      C      -2.5852689580    -1.2520891856     0.1616938427
    7      C      -2.9992675849    -2.5129060999     0.0623682924
    8      C      -0.6981073403     0.4470461620     0.0043702028
    9      C      -1.5819679390     1.6341797915    -0.0281282851
   10      O      -1.3962247049     2.6149030739     0.6538432954
   11      O      -2.6349137171     1.5781214471    -0.8484105822
   12      C       0.7281159590     0.4862219662    -0.0013452728
   13      C       1.6086024124     1.6996406281    -0.0882361446
   14      O       2.6587326921     1.6626105510    -0.6779197963
   15      O       1.2208246601     2.7965317741     0.5417550203
   16      H       4.1802443960    -2.6074351735     0.0170635480
   17      H       2.4584446950    -3.2371980980     0.0354341690
   18      H       3.3648853166    -0.3039289674    -0.0254575136
   19      H      -3.3029213054    -0.4675160111     0.3661502755
   20      H      -2.3113344785    -3.3195315234    -0.1293793960
   21      H      -4.0370597309    -2.7719598690     0.1696782873
   22      H      -2.6633827157     0.7712996351    -1.3812515836
   23      H       0.2856980206     2.7941093315     0.8529030179
 ----------------------------------------------------------------

    9   -1084.9284806606      7.72e-06  Convergence criterion met
 Total energy in the final basis set =    -1084.9284806606

                    Orbital Energies (a.u.)
 --------------------------------------------------------------

 Alpha MOs
 -- Occupied --
-88.9372 -19.2297 -19.1754 -19.1739 -19.1251 -10.3597 -10.3200 -10.2623
-10.2537 -10.2419 -10.2324 -10.2317 -10.2179 -10.2076 -10.2009  -7.9993
 -5.9632  -5.9596  -5.9562  -1.1430  -1.0962  -1.0595  -1.0106  -0.9275
 -0.8394  -0.8099  -0.7773  -0.7491  -0.6751  -0.6564  -0.6467  -0.6176
 -0.5983  -0.5863  -0.5346  -0.5222  -0.5075  -0.4898  -0.4746  -0.4583
 -0.4535  -0.4410  -0.4395  -0.4345  -0.4306  -0.4109  -0.3983  -0.3924
 -0.3775  -0.3625  -0.3515  -0.3462  -0.3148  -0.3047  -0.2972  -0.2846
 -0.2669  -0.2316

          Ground-State Mulliken Net Atomic Charges

     Atom                 Charge (a.u.)
  ----------------------------------------
      1 C                    -0.372399
      2 C                    -0.046283
      3 C                    -0.207240
      4 S                     0.298964
      5 C                    -0.200972
      6 C                    -0.105777
      7 C                    -0.360661
      8 C                    -0.013251
      9 C                     0.575209
     10 O                    -0.468843
     11 O                    -0.551917
     12 C                     0.029962
     13 C                     0.559829
     14 O                    -0.459835
     15 O                    -0.589541
     16 H                     0.163228
     17 H                     0.158030
     18 H                     0.200894
     19 H                     0.170021
     20 H                     0.170970
     21 H                     0.165716
     22 H                     0.430971
     23 H                     0.452924
  ----------------------------------------
  Sum of atomic charges =     0.000000

                    Cartesian Multipole Moments
 -----------------------------------------------------------------
    Charge (ESU x 10^10)
                 0.0000
    Dipole Moment (Debye)
         X      -3.5854      Y      -5.5725      Z      -0.4040
       Tot       6.6386
    Quadrupole Moments (Debye-Ang)
        XX     -89.7586     XY      -2.6472     YY     -98.8453
        XZ       5.4099     YZ       0.2262     ZZ     -92.8127

 Total job time:  42.88s(wall), 42.75s(cpu)
        *  Thank you very much for using Q-Chem.  Have a nice day.  *
