 Q-Chem 5.2, Q-Chem, Inc., Pleasanton, CA (2019)
 Q-Chem 5.2.1 for Intel X86 EM64T Linux

User input:
--------------------------------------------------------------
$molecule
0 1
C        -5.61209407660000   -1.62540257790000    0.13578729100000
C        -5.37011471030000   -0.32072095050000    0.03656473750000
C        -4.06397310060000    0.27326964370000   -0.01008097560000
C        -3.76541358440000    1.61133695220000   -0.11053808030000
C        -2.39408233440000    1.88222798380000   -0.13313388120000
C        -1.61667623910000    0.74856531070000   -0.04999223890000
C        -0.19385045360000    0.66029177890000   -0.04662789010000
C         0.71898564520000    1.68999023730000   -0.12455571960000
C         2.04853548200000    1.26124049780000   -0.09671904710000
C         2.17729549070000   -0.10420164120000    0.00298164090000
C         3.35175003070000   -0.92442925210000    0.05935184250000
C         4.60983551880000   -0.49757561110000    0.02272711210000
F         5.02096256330000    0.76250260960000   -0.07236419390000
F         5.66491318210000   -1.30542134140000    0.07843953230000
S         0.61740143810000   -0.87080587940000    0.06360511990000
S        -2.60916384090000   -0.67506989360000    0.05816138600000
H        -6.61417116510000   -2.01418743950000    0.16652187890000
H        -4.80922590780000   -2.34234142100000    0.18909509850000
H        -6.18836809240000    0.38648523980000   -0.01602463610000
H        -4.52274216620000    2.37343968230000   -0.16615994110000
H        -1.98392188170000    2.87277399190000   -0.20790155040000
H         0.43174248380000    2.72264962590000   -0.19943532510000
H         2.88759905540000    1.93033596060000   -0.14802731530000
H         3.20825195150000   -1.99120987140000    0.13887514490000
$end

$rem
BASIS = 6-31G*
GUI = 2
METHOD = B3LYP
PRINT_ORBITALS false
MOLDEN_FORMAT false
--------------------------------------------------------------

             Standard Nuclear Orientation (Angstroms)
    I     Atom           X                Y                Z
 ----------------------------------------------------------------
    1      C       5.4697948476    -1.7611136544    -0.0000398666
    2      C       5.2547608373    -0.4479690017     0.0021449232
    3      C       3.9611423918     0.1745718468     0.0012718029
    4      C       3.6902302392     1.5222585699     0.0020710354
    5      C       2.3247755069     1.8222148150     0.0008286512
    6      C       1.5241647913     0.7017310847    -0.0007582178
    7      C       0.0998214702     0.6427210950    -0.0015804346
    8      C      -0.7915925784     1.6939118246    -0.0022504431
    9      C      -2.1297000308     1.2917023989    -0.0021413586
   10      C      -2.2865832876    -0.0744376518    -0.0013618987
   11      C      -3.4776998913    -0.8722689570    -0.0004428487
   12      C      -4.7267211442    -0.4181016759     0.0011343839
   13      F      -5.1117848908     0.8537434662     0.0020125210
   14      F      -5.7982309825    -1.2059932596     0.0021304393
   15      S      -0.7428240124    -0.8753333341    -0.0010073422
   16      S       2.4870933573    -0.7461068075    -0.0009952348
   17      H       6.4636437235    -2.1716262362     0.0007391007
   18      H       4.6523197789    -2.4633729274    -0.0026377822
   19      H       6.0874171618     0.2442168870     0.0047861051
   20      H       4.4631079021     2.2706561599     0.0035232608
   21      H       1.9351220834     2.8238001531     0.0012928245
   22      H      -0.4831205181     2.7231570105    -0.0028311763
   23      H      -2.9547915260     1.9798686412    -0.0025934761
   24      H      -3.3562241753    -1.9447334467    -0.0007786377
 ----------------------------------------------------------------

    9   -1458.0855814165      9.52e-06  Convergence criterion met
 Total energy in the final basis set =    -1458.0855814165

                    Orbital Energies (a.u.)
 --------------------------------------------------------------

 Alpha MOs
 -- Occupied --
-88.9133 -88.9073 -24.7482 -24.7405 -10.3619 -10.2319 -10.2298 -10.2294
-10.2201 -10.2150 -10.1996 -10.1963 -10.1943 -10.1941 -10.1936 -10.1826
 -7.9751  -7.9694  -5.9391  -5.9356  -5.9334  -5.9319  -5.9298  -5.9261
 -1.2894  -1.2299  -0.9059  -0.8851  -0.8189  -0.7955  -0.7579  -0.7457
 -0.7342  -0.6982  -0.6485  -0.6185  -0.5921  -0.5846  -0.5702  -0.5461
 -0.5347  -0.5243  -0.5234  -0.4902  -0.4737  -0.4565  -0.4473  -0.4457
 -0.4305  -0.4211  -0.4123  -0.4120  -0.3988  -0.3867  -0.3843  -0.3783
 -0.3668  -0.3568  -0.3358  -0.3246  -0.2906  -0.2648  -0.2542  -0.2381
 -0.1858

          Ground-State Mulliken Net Atomic Charges

     Atom                 Charge (a.u.)
  ----------------------------------------
      1 C                    -0.376050
      2 C                    -0.058092
      3 C                    -0.129550
      4 C                    -0.150266
      5 C                    -0.110392
      6 C                    -0.163844
      7 C                    -0.159201
      8 C                    -0.110380
      9 C                    -0.144794
     10 C                    -0.107687
     11 C                    -0.268809
     12 C                     0.555330
     13 F                    -0.236294
     14 F                    -0.243503
     15 S                     0.258202
     16 S                     0.257919
     17 H                     0.147493
     18 H                     0.156240
     19 H                     0.139346
     20 H                     0.140790
     21 H                     0.139558
     22 H                     0.142300
     23 H                     0.149389
     24 H                     0.172293
  ----------------------------------------
  Sum of atomic charges =     0.000000

                    Cartesian Multipole Moments
 -----------------------------------------------------------------
    Charge (ESU x 10^10)
                 0.0000
    Dipole Moment (Debye)
         X       0.8099      Y       1.0130      Z       0.0006
       Tot       1.2970
    Quadrupole Moments (Debye-Ang)
        XX     -98.1475     XY       2.7114     YY     -94.7598
        XZ       0.0199     YZ       0.0064     ZZ    -108.7179

 Total job time:  41.12s(wall), 41.00s(cpu)
        *  Thank you very much for using Q-Chem.  Have a nice day.  *
