 Q-Chem 5.2, Q-Chem, Inc., Pleasanton, CA (2019)
 Q-Chem 5.2.1 for Intel X86 EM64T Linux

User input:
--------------------------------------------------------------
$molecule
0 1
C        -4.28201293410000    1.10000465450000    0.01848196300000
C        -2.95657915150000    1.20411603000000   -0.00255510910000
C        -2.00528480890000    0.10800325220000   -0.00407177450000
C        -2.33827533970000   -1.23057796430000   -0.00749055420000
C        -1.38103045050000   -2.25268538400000   -0.00766348660000
C        -0.02352118650000   -2.00805291430000   -0.00445815300000
C         1.00793874210000   -3.02908226990000   -0.00346247450000
C         0.81728257280000   -4.34483698310000    0.01941884030000
C         0.37195211150000   -0.64020391160000   -0.00333975550000
N         1.62882255850000   -0.21222147070000   -0.00196311090000
Se        1.64067062180000    1.53654766750000   -0.00034711330000
N        -0.10511985020000    1.63921353260000   -0.00146673190000
C        -0.61447268300000    0.41305953460000   -0.00308690760000
H        -4.90862248580000    1.97490797320000    0.01855093100000
H        -4.79442466260000    0.15315299280000    0.03748752070000
H        -2.49427475850000    2.18189832860000   -0.01806329170000
H        -3.37963984010000   -1.51387274670000   -0.01132176160000
H        -1.73188670130000   -3.27326559290000   -0.01174695220000
H         2.01383588410000   -2.63182364860000   -0.02104680050000
H        -0.16108064850000   -4.79411149610000    0.04059126800000
H         1.64924981730000   -5.02743373360000    0.01928287430000
$end

$rem
BASIS = 6-31G*
GUI = 2
METHOD = B3LYP
PRINT_ORBITALS false
MOLDEN_FORMAT false
--------------------------------------------------------------

             Standard Nuclear Orientation (Angstroms)
    I     Atom           X                Y                Z
 ----------------------------------------------------------------
    1      C       2.1869849646    -3.7299774503     0.0157716927
    2      C       1.1483978539    -2.8999181137    -0.0040968753
    3      C       1.2033610164    -1.4496067624    -0.0056727392
    4      C       2.3614309575    -0.7002431661    -0.0103915079
    5      C       2.3614635564     0.7001215561    -0.0105620014
    6      C       1.2034346491     1.4495449675    -0.0060540753
    7      C       1.1485642736     2.8998551548    -0.0049941749
    8      C       2.1871743177     3.7298559972     0.0167215459
    9      C      -0.0202491988     0.7215319842    -0.0035619229
   10      N      -1.2301621735     1.2683384281    -0.0008247436
   11      Se     -2.4342401329     0.0000624515     0.0021420232
   12      N      -1.2302219405    -1.2682671481    -0.0003327816
   13      C      -0.0202819573    -0.7215195611    -0.0033115892
   14      H       2.0462579029    -4.7968847544     0.0159969081
   15      H       3.2082538534    -3.3891754729     0.0336302752
   16      H       0.1425610244    -3.2975481000    -0.0184755219
   17      H       3.3151435216    -1.2053361601    -0.0152952879
   18      H       3.3151917094     1.2051728307    -0.0157162715
   19      H       0.1428102472     3.2975243671    -0.0214476533
   20      H       3.2083934699     3.3889734324     0.0367458506
   21      H       2.0465589900     4.7967839082     0.0167454741
 ----------------------------------------------------------------

   10   -2896.6078233292      5.22e-06  Convergence criterion met
 Total energy in the final basis set =    -2896.6078233292

                    Orbital Energies (a.u.)
 --------------------------------------------------------------

 Alpha MOs
 -- Occupied --
******** -58.1607 -52.2184 -52.2164 -52.2156 -14.3577 -14.3576 -10.2358
-10.2354 -10.2069 -10.2069 -10.2015 -10.2010 -10.1904 -10.1904 -10.1839
-10.1839  -7.8959  -5.8413  -5.8348  -5.8307  -2.1742  -2.1731  -2.1685
 -2.1637  -2.1634  -0.9946  -0.8809  -0.8651  -0.8048  -0.7694  -0.7559
 -0.7183  -0.6560  -0.6235  -0.6165  -0.5704  -0.5339  -0.5147  -0.4899
 -0.4839  -0.4694  -0.4410  -0.4319  -0.4244  -0.4034  -0.3855  -0.3832
 -0.3635  -0.3612  -0.3519  -0.3475  -0.3047  -0.2909  -0.2820  -0.2714
 -0.2595  -0.2057

          Ground-State Mulliken Net Atomic Charges

     Atom                 Charge (a.u.)
  ----------------------------------------
      1 C                    -0.349553
      2 C                    -0.103373
      3 C                     0.183677
      4 C                    -0.216496
      5 C                    -0.216493
      6 C                     0.183672
      7 C                    -0.103366
      8 C                    -0.349556
      9 C                     0.193821
     10 N                    -0.521139
     11 Se                    0.452604
     12 N                    -0.521147
     13 C                     0.193813
     14 H                     0.149296
     15 H                     0.141910
     16 H                     0.161045
     17 H                     0.134518
     18 H                     0.134519
     19 H                     0.161043
     20 H                     0.141908
     21 H                     0.149298
  ----------------------------------------
  Sum of atomic charges =     0.000000

                    Cartesian Multipole Moments
 -----------------------------------------------------------------
    Charge (ESU x 10^10)
                 0.0000
    Dipole Moment (Debye)
         X       0.8168      Y       0.0001      Z      -0.0017
       Tot       0.8168
    Quadrupole Moments (Debye-Ang)
        XX     -74.1400     XY      -0.0002     YY     -84.0200
        XZ       0.0570     YZ       0.0003     ZZ     -89.8714

 Total job time:  47.64s(wall), 47.49s(cpu)
        *  Thank you very much for using Q-Chem.  Have a nice day.  *
