 Q-Chem 5.2, Q-Chem, Inc., Pleasanton, CA (2019)
 Q-Chem 5.2.1 for Intel X86 EM64T Linux

User input:
--------------------------------------------------------------
$molecule
0 1
C        -4.17721454080000    2.00467096370000    0.19307306000000
C        -2.96648685850000    2.15430353770000   -0.33627818550000
C        -1.93086156670000    1.15811710260000   -0.31904529720000
C        -0.67241278700000    1.26669849670000   -0.84217092200000
C         0.14951940610000    0.12416954310000   -0.68421540910000
C         1.56589965720000    0.21177722680000   -1.20914990660000
C         2.29327995670000    1.41743107570000   -0.58371217250000
C         2.63013527850000    1.16125449500000    0.88071848330000
C         3.55248964660000   -0.04591177390000    1.00107549200000
C         2.87279310370000   -1.27100476520000    0.40062704960000
C         2.47494980100000   -1.01018222350000   -1.05070609400000
C        -0.52518740770000   -0.89502354720000   -0.04712159930000
C        -0.17237271860000   -2.26363704570000    0.25396072920000
C        -0.75845254380000   -2.99453085300000    1.19797775760000
S        -2.14531162340000   -0.40356465750000    0.39807808610000
H        -4.91550281830000    2.78550684250000    0.14935141850000
H        -4.46274620720000    1.09070891970000    0.68741218110000
H        -2.69359125280000    3.07915296560000   -0.82948234160000
H        -0.34920325230000    2.15622642550000   -1.35514240570000
H         1.46748921850000    0.40868256220000   -2.28690690470000
H         1.68926956310000    2.32066370750000   -0.66822325900000
H         3.21990101760000    1.58693040010000   -1.13820365720000
H         1.70933994920000    0.97491366190000    1.43838131890000
H         3.10957853660000    2.04490423960000    1.30765300980000
H         3.79570876740000   -0.23243324250000    2.04905656510000
H         4.48662601560000    0.15665100520000    0.47084805790000
H         1.99071938260000   -1.50724399170000    0.99656286750000
H         3.54562480050000   -2.13092111490000    0.44165293670000
H         2.01019314390000   -1.89161518470000   -1.49386304670000
H         3.38502080310000   -0.81300018970000   -1.62526046440000
H         0.58945497230000   -2.71518910490000   -0.36236586730000
H        -1.52522202410000   -2.58819219860000    1.83676525020000
H        -0.48548861360000   -4.02181012320000    1.36382146100000
$end

$rem
BASIS = 6-31G*
GUI = 2
METHOD = B3LYP
PRINT_ORBITALS false
MOLDEN_FORMAT false
--------------------------------------------------------------

             Standard Nuclear Orientation (Angstroms)
    I     Atom           X                Y                Z
 ----------------------------------------------------------------
    1      C       4.5913135339     0.8854973842    -0.4656354737
    2      C       3.4518824865     1.4304314735    -0.0494529469
    3      C       2.2152295065     0.7201099815     0.1275694131
    4      C       1.0198798507     1.2355236319     0.5454589186
    5      C      -0.0435916477     0.3042269943     0.6326932518
    6      C      -1.3974502142     0.8357556543     1.0497167696
    7      C      -1.8342788649     1.9778517185     0.1123518606
    8      C      -2.2337157698     1.4455607808    -1.2590604080
    9      C      -3.4094269670     0.4853169555    -1.1244915884
   10      C      -3.0236866007    -0.6706495059    -0.2088909825
   11      C      -2.5639394323    -0.1509377280     1.1516999900
   12      C       0.3737043381    -0.9664585623     0.2993846278
   13      C      -0.2862986759    -2.2517150828     0.3266496136
   14      C       0.1081928697    -3.3078189951    -0.3789596379
   15      S       2.0594080152    -0.9783315902    -0.1726314933
   16      H       5.4893987750     1.4663014368    -0.5787521589
   17      H       4.6552194050    -0.1630729582    -0.7057237778
   18      H       3.4027629512     2.4861382529     0.1874843503
   19      H       0.9138599457     2.2741940016     0.8077330600
   20      H      -1.2470689437     1.2689076656     2.0496074041
   21      H      -1.0384486484     2.7142553025     0.0020618132
   22      H      -2.6924142678     2.4840789653     0.5619683894
   23      H      -1.3851419025     0.9239841684    -1.7078978084
   24      H      -2.5013657912     2.2784674451    -1.9129761161
   25      H      -3.6981064002     0.1018712252    -2.1052278860
   26      H      -4.2675039585     1.0182965384    -0.7068551339
   27      H      -2.2245822065    -1.2401189373    -0.6844319951
   28      H      -3.8761821905    -1.3399384474    -0.0705243455
   29      H      -2.3099332783    -0.9744025269     1.8200543114
   30      H      -3.3994405602     0.3826726453     1.6147556484
   31      H      -1.1259792420    -2.3518951700     0.9967538319
   32      H       0.9421141994    -3.2569528915    -1.0594622860
   33      H      -0.3946026072    -4.2556494752    -0.3006638549
 ----------------------------------------------------------------

    9    -942.4713957761      3.18e-06  Convergence criterion met
 Total energy in the final basis set =     -942.4713957761

                    Orbital Energies (a.u.)
 --------------------------------------------------------------

 Alpha MOs
 -- Occupied --
-88.8945 -10.2149 -10.2132 -10.1962 -10.1953 -10.1938 -10.1928 -10.1835
-10.1804 -10.1800 -10.1781 -10.1762 -10.1710 -10.1704 -10.1701  -7.9566
 -5.9207  -5.9170  -5.9133  -0.8882  -0.8371  -0.8040  -0.7788  -0.7546
 -0.7394  -0.7144  -0.6990  -0.6281  -0.6095  -0.6037  -0.5744  -0.5589
 -0.5424  -0.5091  -0.4914  -0.4772  -0.4606  -0.4444  -0.4428  -0.4338
 -0.4222  -0.4072  -0.3979  -0.3914  -0.3813  -0.3748  -0.3738  -0.3616
 -0.3563  -0.3497  -0.3377  -0.3308  -0.3138  -0.3073  -0.2998  -0.2921
 -0.2653  -0.2391  -0.1986

          Ground-State Mulliken Net Atomic Charges

     Atom                 Charge (a.u.)
  ----------------------------------------
      1 C                    -0.373736
      2 C                    -0.055913
      3 C                    -0.128104
      4 C                    -0.190798
      5 C                     0.179785
      6 C                    -0.155886
      7 C                    -0.267221
      8 C                    -0.259547
      9 C                    -0.255106
     10 C                    -0.270890
     11 C                    -0.285783
     12 C                    -0.248911
     13 C                    -0.059114
     14 C                    -0.374591
     15 S                     0.234515
     16 H                     0.145996
     17 H                     0.156665
     18 H                     0.136429
     19 H                     0.136360
     20 H                     0.135750
     21 H                     0.134231
     22 H                     0.128337
     23 H                     0.145622
     24 H                     0.128622
     25 H                     0.130100
     26 H                     0.124200
     27 H                     0.156848
     28 H                     0.127113
     29 H                     0.137385
     30 H                     0.130670
     31 H                     0.150715
     32 H                     0.160963
     33 H                     0.145294
  ----------------------------------------
  Sum of atomic charges =     0.000000

                    Cartesian Multipole Moments
 -----------------------------------------------------------------
    Charge (ESU x 10^10)
                 0.0000
    Dipole Moment (Debye)
         X      -0.8434      Y       0.7319      Z       0.3474
       Tot       1.1694
    Quadrupole Moments (Debye-Ang)
        XX     -95.0911     XY       2.6416     YY     -92.7958
        XZ      -2.7891     YZ       1.7280     ZZ    -100.3571

 Total job time:  64.11s(wall), 63.92s(cpu)
        *  Thank you very much for using Q-Chem.  Have a nice day.  *
