 Q-Chem 5.2, Q-Chem, Inc., Pleasanton, CA (2019)
 Q-Chem 5.2.1 for Intel X86 EM64T Linux

User input:
--------------------------------------------------------------
$molecule
0 1
F         2.95436071140000    5.83820255230000   -0.16386399270000
C         3.31729480490000    4.55491153030000   -0.11608932480000
F         4.64352506970000    4.48892541850000   -0.08411897740000
C         2.44171352710000    3.56049561080000   -0.10312053800000
C         2.68438577780000    2.12870113890000   -0.05129194090000
C         3.97535595760000    1.57485715730000   -0.02321585950000
C         4.16955170900000    0.21138105900000    0.00616615150000
C         1.56809443320000    1.29281930930000   -0.03357859160000
C         1.76266080850000   -0.07562702350000    0.02159711120000
C         3.06466080600000   -0.63066740800000    0.02464095370000
C         2.90071883800000   -2.05492751210000    0.03608925510000
C         3.79295789210000   -3.11987536180000    0.05928017180000
C         3.28813940040000   -4.40370460110000    0.08919089070000
C         1.91358622070000   -4.63330117470000    0.11112306570000
C         1.00662850210000   -3.59151573730000    0.08814024660000
C         1.50725211990000   -2.29845398450000    0.03398513440000
N         0.83242089390000   -1.09404321700000    0.02600012400000
C        -0.56053581320000   -0.93310915090000    0.02241568740000
C        -1.34357559950000   -1.61330176360000   -0.90577372160000
C        -2.71509356100000   -1.45898465490000   -0.90039990880000
C        -3.33748594640000   -0.61335699520000    0.01592764720000
C        -4.79772682590000   -0.44693713100000    0.01387039440000
C        -5.63659313850000   -1.54410866930000   -0.16818891200000
C        -7.01001693580000   -1.38766383010000   -0.16629019800000
C        -7.56796274340000   -0.13272837540000    0.01148979020000
C        -6.74343154860000    0.96540407870000    0.19031699330000
C        -5.36984278470000    0.81028645780000    0.19458606600000
C        -2.54350163030000    0.06972752910000    0.93517487550000
C        -1.17279992000000   -0.09171894600000    0.94694055880000
H         1.40657134110000    3.87020010290000   -0.13471052260000
H         4.83419132120000    2.22439324780000   -0.03418385350000
H         5.16762575650000   -0.19906111980000    0.01136338220000
H         0.57342521140000    1.71102926770000   -0.07395995690000
H         4.85734832830000   -2.94042457610000    0.05828859920000
H         3.96346458700000   -5.24600052180000    0.10530551590000
H         1.54907623800000   -5.64915629430000    0.15061129160000
H        -0.05584773560000   -3.77926081560000    0.12317089870000
H        -0.86872949790000   -2.24880502230000   -1.63839141890000
H        -3.31161961920000   -1.97866581240000   -1.63555961550000
H        -5.20756026990000   -2.52818556150000   -0.28978646750000
H        -7.64848257450000   -2.24851381650000   -0.30188031170000
H        -8.64096196430000   -0.01106043010000    0.01079594620000
H        -7.17312961130000    1.94737037420000    0.32512654600000
H        -4.73168715380000    1.67342462360000    0.31714703310000
H        -3.00982195080000    0.71141165610000    1.66813071350000
H        -0.56971609460000    0.41834492630000    1.68341653050000
$end

$rem
BASIS = 6-31G*
GUI = 2
METHOD = B3LYP
PRINT_ORBITALS false
MOLDEN_FORMAT false
--------------------------------------------------------------

             Standard Nuclear Orientation (Angstroms)
    I     Atom           X                Y                Z
 ----------------------------------------------------------------
    1      F      -4.2853151056    -5.0560165370    -0.1691429766
    2      C      -4.3462764552    -3.7239153409    -0.1178639413
    3      F      -5.6225367501    -3.3576415925    -0.0822804317
    4      C      -3.2671654019    -2.9551285242    -0.1052168266
    5      C      -3.1771899003    -1.5058333941    -0.0499043554
    6      C      -4.3079930176    -0.6725512425    -0.0173376059
    7      C      -4.1864255526     0.6992361925     0.0152652767
    8      C      -1.8998014590    -0.9462559526    -0.0334599395
    9      C      -1.7774084103     0.4303900906     0.0249473510
   10      C      -2.9187314535     1.2674131212     0.0325133360
   11      C      -2.4346343122     2.6168511587     0.0463631497
   12      C      -3.0607728783     3.8569834861     0.0740141449
   13      C      -2.2767129124     4.9919875732     0.1051520416
   14      C      -0.8859541429     4.9023805252     0.1239316267
   15      C      -0.2402071602     3.6814482833     0.0964961394
   16      C      -1.0223366868     2.5365603214     0.0410846088
   17      N      -0.6396267263     1.2101170832     0.0289329498
   18      C       0.6800364210     0.7361202400     0.0213712055
   19      C       1.5954803797     1.2224109730    -0.9075166014
   20      C       2.8957946475     0.7597179620    -0.9060506985
   21      C       3.3111185557    -0.2077730743     0.0069562873
   22      C       4.6950503017    -0.7024420918     0.0007341502
   23      C       5.7614088822     0.1752561525    -0.1813450516
   24      C       7.0630868745    -0.2899339700    -0.1833634634
   25      C       7.3208661698    -1.6394187300    -0.0095447029
   26      C       6.2682400935    -2.5213098480     0.1692628645
   27      C       4.9661121108    -2.0573900994     0.1774468236
   28      C       2.3843402591    -0.6943639514     0.9269249475
   29      C       1.0864808809    -0.2249583988     0.9426104807
   30      H      -2.3298568820    -3.4924061374    -0.1401403124
   31      H      -5.2922317812    -1.1093459046    -0.0273421428
   32      H      -5.0647483973     1.3262258531     0.0238991344
   33      H      -1.0266374028    -1.5799443981    -0.0772842469
   34      H      -4.1380570894     3.9247123959     0.0754604010
   35      H      -2.7423752997     5.9659290790     0.1247145342
   36      H      -0.2995369418     5.8083931974     0.1644825269
   37      H       0.8371742005     3.6221453565     0.1291102965
   38      H       1.2763440543     1.9512271583    -1.6376199341
   39      H       3.5934710694     1.1317146304    -1.6417393058
   40      H       5.5675704547     1.2314964986    -0.2998587346
   41      H       7.8805785166     0.4031881539    -0.3189174609
   42      H       8.3379354209    -2.0023056982    -0.0132977180
   43      H       6.4632348045    -3.5756800995     0.3009909232
   44      H       4.1483736775    -2.7527778372     0.2999663814
   45      H       2.6937677065    -1.4272572480     1.6573765141
   46      H       0.3846126733    -0.5861001861     1.6796516870
 ----------------------------------------------------------------

    9   -1255.4433369224      4.51e-06  Convergence criterion met
 Total energy in the final basis set =    -1255.4433369224

                    Orbital Energies (a.u.)
 --------------------------------------------------------------

 Alpha MOs
 -- Occupied --
-24.7404 -24.7295 -14.3843 -10.3520 -10.2382 -10.2231 -10.2218 -10.2035
-10.2031 -10.1997 -10.1995 -10.1992 -10.1991 -10.1981 -10.1981 -10.1915
-10.1914 -10.1907 -10.1907 -10.1902 -10.1880 -10.1872 -10.1855 -10.1854
-10.1852 -10.1847 -10.1841 -10.1788 -10.1782  -1.2808  -1.2197  -1.0040
 -0.8845  -0.8661  -0.8567  -0.8461  -0.8120  -0.7882  -0.7679  -0.7653
 -0.7542  -0.7504  -0.7441  -0.7167  -0.7117  -0.6570  -0.6419  -0.6352
 -0.6195  -0.6128  -0.6010  -0.5973  -0.5803  -0.5794  -0.5661  -0.5500
 -0.5337  -0.5291  -0.5145  -0.5080  -0.4884  -0.4838  -0.4796  -0.4671
 -0.4574  -0.4525  -0.4518  -0.4479  -0.4403  -0.4381  -0.4367  -0.4363
 -0.4322  -0.4264  -0.4234  -0.4209  -0.4136  -0.4032  -0.3898  -0.3849
 -0.3722  -0.3711  -0.3644  -0.3624  -0.3607  -0.3465  -0.3456  -0.3406
 -0.3368  -0.3309  -0.3036  -0.2798  -0.2659  -0.2567  -0.2552  -0.2541
 -0.2369  -0.2008  -0.1982

          Ground-State Mulliken Net Atomic Charges

     Atom                 Charge (a.u.)
  ----------------------------------------
      1 F                    -0.251795
      2 C                     0.536599
      3 F                    -0.234906
      4 C                    -0.295635
      5 C                     0.199570
      6 C                    -0.219296
      7 C                    -0.195465
      8 C                    -0.258102
      9 C                     0.316745
     10 C                     0.066514
     11 C                     0.058934
     12 C                    -0.194146
     13 C                    -0.145423
     14 C                    -0.138423
     15 C                    -0.177959
     16 C                     0.314594
     17 N                    -0.738808
     18 C                     0.284918
     19 C                    -0.161849
     20 C                    -0.188077
     21 C                     0.098235
     22 C                     0.085609
     23 C                    -0.170223
     24 C                    -0.132633
     25 C                    -0.123758
     26 C                    -0.132699
     27 C                    -0.169987
     28 C                    -0.188136
     29 C                    -0.162690
     30 H                     0.156258
     31 H                     0.132999
     32 H                     0.132289
     33 H                     0.138846
     34 H                     0.129435
     35 H                     0.122422
     36 H                     0.125421
     37 H                     0.138776
     38 H                     0.153496
     39 H                     0.140377
     40 H                     0.131379
     41 H                     0.131056
     42 H                     0.130171
     43 H                     0.131107
     44 H                     0.130911
     45 H                     0.140247
     46 H                     0.153100
  ----------------------------------------
  Sum of atomic charges =     0.000000

                    Cartesian Multipole Moments
 -----------------------------------------------------------------
    Charge (ESU x 10^10)
                 0.0000
    Dipole Moment (Debye)
         X       2.7231      Y       0.4157      Z       0.0100
       Tot       2.7546
    Quadrupole Moments (Debye-Ang)
        XX    -151.9157     XY      -6.9026     YY    -156.7383
        XZ      -1.5403     YZ      -3.8183     ZZ    -166.7817

 Total job time:  162.16s(wall), 161.71s(cpu)
        *  Thank you very much for using Q-Chem.  Have a nice day.  *
