 Q-Chem 5.2, Q-Chem, Inc., Pleasanton, CA (2019)
 Q-Chem 5.2.1 for Intel X86 EM64T Linux

User input:
--------------------------------------------------------------
$molecule
0 1
C        -4.16265117820000    0.05066399920000    0.10991777990000
C        -3.12019054020000   -0.75331699160000   -0.05784108680000
C        -1.71317730130000   -0.37074378980000   -0.03932612060000
C        -0.72768276970000   -1.38841767640000   -0.02819286130000
C         0.62229414620000   -1.12147561300000   -0.00443464850000
C         1.58456690900000   -2.20999645600000    0.01136554130000
C         2.90451539330000   -2.06417833410000    0.03318538610000
C         1.01547708010000    0.24050810440000    0.00158893730000
N         2.21184859770000    0.79861531450000    0.01839454640000
C         2.00497980220000    2.12967514360000    0.01043030560000
C         0.66510759590000    2.42169008940000   -0.01284493930000
N         0.02190773760000    1.22202491510000   -0.01756322330000
C        -1.29803797780000    0.93652406860000   -0.03717561610000
H        -5.16931280700000   -0.32867893560000    0.08229279080000
H        -4.06339977820000    1.10778106970000    0.28672623090000
H        -3.29229956340000   -1.81085256910000   -0.21339587810000
H        -1.05732814020000   -2.41743135670000   -0.03396970350000
H         1.14200097030000   -3.19921872590000    0.00448838190000
H         3.35036863620000   -1.08516226200000    0.04018121370000
H         3.56098909650000   -2.91797511520000    0.04457029680000
H         2.83274920700000    2.81138821000000    0.02141046650000
H         0.14140819700000    3.35521380590000   -0.02488202640000
H        -1.97488708770000    1.77606367640000   -0.06015480500000
$end

$rem
BASIS = 6-31G*
GUI = 2
METHOD = B3LYP
PRINT_ORBITALS false
MOLDEN_FORMAT false
--------------------------------------------------------------

             Standard Nuclear Orientation (Angstroms)
    I     Atom           X                Y                Z
 ----------------------------------------------------------------
    1      C       4.1383026226     0.0047155670     0.1072479325
    2      C       3.0822471049     0.7910247188    -0.0592372444
    3      C       1.6819506864     0.3845639533    -0.0405049323
    4      C       0.6793000867     1.3853219436    -0.0279041125
    5      C      -0.6659319922     1.0954400368    -0.0038349330
    6      C      -1.6465667026     2.1674248180     0.0134952503
    7      C      -2.9638350527     1.9991618387     0.0357369921
    8      C      -1.0358973452    -0.2730377104     0.0009653263
    9      N      -2.2225986560    -0.8514236165     0.0177175568
   10      C      -1.9931311835    -2.1787647267     0.0083020145
   11      C      -0.6484981147    -2.4479310384    -0.0158516920
   12      N      -0.0257914948    -1.2374984261    -0.0196208914
   13      C       1.2891000362    -0.9295752773    -0.0395122726
   14      H       5.1383561730     0.4011483743     0.0795755167
   15      H       4.0571194467    -1.0541153239     0.2830176853
   16      H       3.2362798122     1.8514913116    -0.2137844454
   17      H       0.9913987128     2.4197973465    -0.0327707980
   18      H      -1.2208877604     3.1640357555     0.0074386810
   19      H      -3.3929743075     1.0126996017     0.0419240937
   20      H      -3.6347258843     2.8416607773     0.0482794451
   21      H      -2.8091846400    -2.8744650825     0.0189428583
   22      H      -0.1090070653    -3.3724023216    -0.0290704424
   23      H       1.9801156929    -1.7574608812    -0.0636432259
 ----------------------------------------------------------------

    9    -534.6462385602      4.47e-06  Convergence criterion met
 Total energy in the final basis set =     -534.6462385602

                    Orbital Energies (a.u.)
 --------------------------------------------------------------

 Alpha MOs
 -- Occupied --
-14.4171 -14.3064 -10.2435 -10.2387 -10.2109 -10.2080 -10.2060 -10.2046
-10.2008 -10.1971 -10.1879 -10.1842 -10.1674  -1.0422  -0.9133  -0.8529
 -0.8093  -0.7614  -0.7389  -0.7328  -0.6623  -0.6198  -0.6171  -0.5842
 -0.5739  -0.5201  -0.4964  -0.4879  -0.4713  -0.4672  -0.4585  -0.4344
 -0.4267  -0.4243  -0.3897  -0.3769  -0.3653  -0.3615  -0.3531  -0.3430
 -0.3003  -0.2629  -0.2521  -0.2277  -0.2023

          Ground-State Mulliken Net Atomic Charges

     Atom                 Charge (a.u.)
  ----------------------------------------
      1 C                    -0.354618
      2 C                    -0.109195
      3 C                     0.115994
      4 C                    -0.265997
      5 C                     0.158175
      6 C                    -0.123594
      7 C                    -0.354149
      8 C                     0.468581
      9 N                    -0.528254
     10 C                    -0.006445
     11 C                    -0.015359
     12 N                    -0.473759
     13 C                     0.021563
     14 H                     0.148927
     15 H                     0.138802
     16 H                     0.134165
     17 H                     0.135060
     18 H                     0.121049
     19 H                     0.199771
     20 H                     0.134465
     21 H                     0.140369
     22 H                     0.153267
     23 H                     0.161178
  ----------------------------------------
  Sum of atomic charges =     0.000000

                    Cartesian Multipole Moments
 -----------------------------------------------------------------
    Charge (ESU x 10^10)
                 0.0000
    Dipole Moment (Debye)
         X       2.7163      Y      -0.8082      Z      -0.0558
       Tot       2.8346
    Quadrupole Moments (Debye-Ang)
        XX     -73.8084     XY      -0.6420     YY     -63.7137
        XZ      -0.0295     YZ      -0.3303     ZZ     -79.8416

 Total job time:  33.08s(wall), 32.97s(cpu)
        *  Thank you very much for using Q-Chem.  Have a nice day.  *
