 Q-Chem 5.2, Q-Chem, Inc., Pleasanton, CA (2019)
 Q-Chem 5.2.1 for Intel X86 EM64T Linux

User input:
--------------------------------------------------------------
$molecule
0 1
C         5.82495208970000   -1.10008329200000    0.42657707890000
C         5.00607968080000   -0.21452703730000   -0.12844051610000
C         3.54988674030000   -0.21784511590000   -0.07454139280000
C         2.81071601810000   -1.23950732950000    0.52484842320000
C         1.43289261910000   -1.18085607790000    0.54042720170000
C         0.73779181140000   -0.11344898600000   -0.01768938030000
C        -0.73780203760000   -0.11328475450000    0.01709025960000
C        -1.43315089730000   -1.18007569240000   -0.54190267360000
C        -2.81098733870000   -1.23839278690000   -0.52644348200000
C        -3.54995309590000   -0.21697766440000    0.07363330220000
C        -5.00614142610000   -0.21323156860000    0.12744729410000
C        -5.82519246340000   -1.10191703990000   -0.42229624140000
C        -2.85774569520000    0.84076888420000    0.65602598860000
C        -1.46783105810000    0.91416237700000    0.64024108380000
N        -0.82911516580000    2.00542233440000    1.19243496460000
C         1.46803672900000    0.91423564770000   -0.64020637750000
N         0.82957781380000    2.00606177490000   -1.19153540860000
C         2.85792715930000    0.84039653440000   -0.65631529710000
H         6.89379942510000   -1.01064226270000    0.33220150230000
H         5.47254812340000   -1.94324288680000    0.99533660290000
H         5.43250504910000    0.61441438250000   -0.68164585840000
H         3.31076187120000   -2.08250222870000    0.97372401870000
H         0.86668458250000   -1.97460491950000    1.00743255630000
H        -0.86712394140000   -1.97353071670000   -1.00963204680000
H        -3.31119033010000   -2.08073480200000   -0.97636048180000
H        -5.43244298270000    0.61863028480000    0.67629609580000
H        -5.47301555250000   -1.94861732240000   -0.98587643270000
H        -6.89400387430000   -1.01194470600000   -0.32803993300000
H        -3.40984461140000    1.63474973450000    1.14177980650000
H        -1.35049477440000    2.52713559110000    1.87739020740000
H         0.15006426460000    1.89129916340000    1.39762676670000
H        -0.14968780470000    1.89246587420000   -1.39658451280000
H         1.35101649770000    2.52817877140000   -1.87613186500000
H         3.41020532510000    1.63453168800000   -1.14160916790000
$end

$rem
BASIS = 6-31G*
GUI = 2
METHOD = B3LYP
PRINT_ORBITALS false
MOLDEN_FORMAT false
--------------------------------------------------------------

             Standard Nuclear Orientation (Angstroms)
    I     Atom           X                Y                Z
 ----------------------------------------------------------------
    1      C       5.8255443291    -1.0975335978     0.4182690141
    2      C       5.0058923581    -0.2119533140    -0.1355582519
    3      C       3.5497771635    -0.2152644819    -0.0795977164
    4      C       2.8114495582    -1.2369428728     0.5208028163
    5      C       1.4336499513    -1.1782838634     0.5383342271
    6      C       0.7377661736    -0.1108533810    -0.0187609936
    7      C      -0.7377769569    -0.1106814640     0.0181076640
    8      C      -1.4339229780    -1.1774489785    -0.5399369837
    9      C      -2.8117365063    -1.2357583110    -0.5225291655
   10      C      -3.5498457764    -0.2143593918     0.0786283373
   11      C      -5.0059564383    -0.2106063824     0.1345039779
   12      C      -5.8257903375    -1.0992680040    -0.4141100243
   13      C      -2.8568081383     0.8433629469     0.6600768510
   14      C      -1.4669167960     0.9167486162     0.6423267391
   15      N      -0.8274131627     2.0079857250     1.1936533603
   16      C       1.4671352779     0.9168482795    -0.6422758405
   17      N       0.8279030935     2.0086972227    -1.1926628668
   18      C       2.8570010613     0.8430013541    -0.6603549981
   19      H       6.8942575255    -1.0080957547     0.3223834069
   20      H       5.4739408110    -1.9407106440     0.9874978685
   21      H       5.4315391383     0.6170045763    -0.6893382239
   22      H       3.3121252825    -2.0799562291     0.9689410267
   23      H       0.8680988203    -1.9720453677     1.0061134036
   24      H      -0.8685635840    -1.9708913131    -1.0084945300
   25      H      -3.3125810702    -2.0780818312    -0.9717665414
   26      H      -5.4314754965     0.6212391486     0.6839843790
   27      H      -5.4744167965    -1.9459510110    -0.9782173699
   28      H      -6.8944666895    -1.0092924801    -0.3183375633
   29      H      -3.4082139855     1.6373304034     1.1466391236
   30      H      -1.3478193694     2.5296785479     1.8793640003
   31      H       0.1520550906     1.8938495984     1.3974547736
   32      H      -0.1516525277     1.8951142733    -1.3963292950
   33      H       1.3483752175     2.5308346397    -1.8779788910
   34      H       3.4085964462     1.6371498837    -1.1464029382
 ----------------------------------------------------------------

    9    -728.8064930541      2.24e-06  Convergence criterion met
 Total energy in the final basis set =     -728.8064930541

                    Orbital Energies (a.u.)
 --------------------------------------------------------------

 Alpha MOs
 -- Occupied --
-14.3335 -14.3335 -10.2218 -10.2218 -10.1874 -10.1874 -10.1847 -10.1847
-10.1814 -10.1811 -10.1785 -10.1785 -10.1753 -10.1753 -10.1743 -10.1743
-10.1688 -10.1688  -0.9284  -0.9116  -0.8472  -0.8394  -0.7980  -0.7730
 -0.7411  -0.7280  -0.7238  -0.6969  -0.6362  -0.6151  -0.6013  -0.5965
 -0.5570  -0.5555  -0.5240  -0.5147  -0.5090  -0.4900  -0.4772  -0.4640
 -0.4577  -0.4436  -0.4371  -0.4201  -0.4186  -0.4090  -0.4041  -0.3873
 -0.3820  -0.3800  -0.3647  -0.3528  -0.3461  -0.3334  -0.3280  -0.3257
 -0.3175  -0.2818  -0.2756  -0.2284  -0.2206  -0.1959  -0.1890

          Ground-State Mulliken Net Atomic Charges

     Atom                 Charge (a.u.)
  ----------------------------------------
      1 C                    -0.354472
      2 C                    -0.114200
      3 C                     0.188722
      4 C                    -0.203031
      5 C                    -0.178219
      6 C                     0.012093
      7 C                     0.012127
      8 C                    -0.178215
      9 C                    -0.203032
     10 C                     0.188788
     11 C                    -0.114183
     12 C                    -0.354506
     13 C                    -0.266264
     14 C                     0.286519
     15 N                    -0.797995
     16 C                     0.286587
     17 N                    -0.798013
     18 C                    -0.266230
     19 H                     0.141048
     20 H                     0.142737
     21 H                     0.122293
     22 H                     0.116988
     23 H                     0.130805
     24 H                     0.130809
     25 H                     0.116975
     26 H                     0.122276
     27 H                     0.142741
     28 H                     0.141053
     29 H                     0.111344
     30 H                     0.320997
     31 H                     0.340557
     32 H                     0.340566
     33 H                     0.320998
     34 H                     0.111337
  ----------------------------------------
  Sum of atomic charges =     0.000000

                    Cartesian Multipole Moments
 -----------------------------------------------------------------
    Charge (ESU x 10^10)
                 0.0000
    Dipole Moment (Debye)
         X       0.0002      Y       1.5593      Z       0.0007
       Tot       1.5593
    Quadrupole Moments (Debye-Ang)
        XX    -101.3892     XY       0.0018     YY     -97.9516
        XZ      -2.7950     YZ      -0.0052     ZZ    -101.2826

 Total job time:  72.20s(wall), 71.90s(cpu)
        *  Thank you very much for using Q-Chem.  Have a nice day.  *
