 Q-Chem 5.2, Q-Chem, Inc., Pleasanton, CA (2019)
 Q-Chem 5.2.1 for Intel X86 EM64T Linux

User input:
--------------------------------------------------------------
$molecule
0 1
C        -2.98356445790000   -3.17073112700000   -0.55820656570000
C        -1.72345089940000   -2.75721777030000   -0.50211645400000
C        -1.26020859250000   -1.39610861510000   -0.25363967680000
C        -2.12508719740000   -0.32181704470000   -0.05332052380000
C        -1.65497845370000    0.96736564770000    0.18247022160000
C        -2.53998116730000    2.10834906690000    0.39502603710000
C        -3.86723574550000    2.09610007530000    0.40922392060000
C        -0.27173526300000    1.18053933500000    0.21673683990000
C         0.58686334900000    0.12280326620000    0.01900933200000
S         2.38102410870000    0.27410163550000    0.03976759630000
C         2.77519120990000    2.02167303040000    0.35770103780000
O         2.87458786250000   -0.50246053170000    1.14522241950000
O         2.86514543860000   -0.06039605900000   -1.27264680440000
C         0.11440846350000   -1.15174921240000   -0.21389297490000
H        -3.22268532060000   -4.20262472230000   -0.74874119240000
H        -3.82464510640000   -2.51325304840000   -0.41966045910000
H        -0.92769897530000   -3.47588503740000   -0.64982466330000
H        -3.18828235250000   -0.49289041790000   -0.08296771760000
H        -2.02605085980000    3.04813384340000    0.55596390200000
H        -4.44734828250000    1.20227898510000    0.25884897680000
H        -4.43055831630000    2.99782172740000    0.57630186680000
H         0.10688908560000    2.17425798330000    0.39824549450000
H         2.37801929380000    2.29812623470000    1.32546527470000
H         2.36722050570000    2.62260444870000   -0.44428143310000
H         3.85641888160000    2.08771300690000    0.36314352030000
H         0.82957243960000   -1.94580854690000   -0.36269364830000
$end

$rem
BASIS = 6-31G*
GUI = 2
METHOD = B3LYP
PRINT_ORBITALS false
MOLDEN_FORMAT false
--------------------------------------------------------------

             Standard Nuclear Orientation (Angstroms)
    I     Atom           X                Y                Z
 ----------------------------------------------------------------
    1      C       3.4629804885     2.6557632517     0.0078437753
    2      C       2.1482675008     2.4730562570    -0.0053278246
    3      C       1.4430584390     1.1957032190    -0.0040349055
    4      C       2.0966445034    -0.0351784044    -0.0049448731
    5      C       1.3978576692    -1.2394562720    -0.0031286194
    6      C       2.0590073291    -2.5406607425    -0.0041255147
    7      C       3.3662665266    -2.7707410148     0.0055073418
    8      C      -0.0016393662    -1.2022724966    -0.0010401801
    9      C      -0.6520721493     0.0110000750    -0.0005967763
   10      S      -2.4443353012     0.1845621680     0.0013851725
   11      C      -3.1524335461    -1.4914604659     0.0009807679
   12      O      -2.8220217546     0.8277706486     1.2311494337
   13      O      -2.8244500417     0.8293324577    -1.2268158641
   14      C       0.0463337108     1.2001879239    -0.0022211750
   15      H       3.8874423441     3.6447588294     0.0052935825
   16      H       4.1691879578     1.8433745991     0.0214376030
   17      H       1.4978085367     3.3380911920    -0.0171251919
   18      H       3.1737123606    -0.0561823573    -0.0085026738
   19      H       1.3814903038    -3.3857154681    -0.0127263731
   20      H       4.1003913914    -1.9839676633     0.0158850537
   21      H       3.7549365381    -3.7743763587     0.0044996375
   22      H      -0.5562581608    -2.1275697411     0.0002020047
   23      H      -2.8379274599    -2.0029806665     0.9010766126
   24      H      -2.8360436866    -2.0034203484    -0.8982016853
   25      H      -4.2278396172    -1.3612895814    -0.0002440702
   26      H      -0.5113879533     2.1238100440    -0.0018979143
 ----------------------------------------------------------------

    9    -974.9213400737      5.32e-06  Convergence criterion met
 Total energy in the final basis set =     -974.9213400737

                    Orbital Energies (a.u.)
 --------------------------------------------------------------

 Alpha MOs
 -- Occupied --
-89.0901 -19.1302 -19.1301 -10.2285 -10.2268 -10.2182 -10.2167 -10.2161
-10.2103 -10.2066 -10.2063 -10.2023 -10.1958 -10.1930  -8.1202  -6.0842
 -6.0837  -6.0836  -1.1114  -0.9995  -0.8929  -0.8218  -0.8123  -0.7765
 -0.7511  -0.7447  -0.6701  -0.6427  -0.6291  -0.5705  -0.5602  -0.5342
 -0.5084  -0.4953  -0.4861  -0.4713  -0.4680  -0.4595  -0.4450  -0.4353
 -0.4297  -0.4192  -0.4050  -0.3987  -0.3869  -0.3769  -0.3554  -0.3346
 -0.3306  -0.3244  -0.3025  -0.2897  -0.2863  -0.2474  -0.2387

          Ground-State Mulliken Net Atomic Charges

     Atom                 Charge (a.u.)
  ----------------------------------------
      1 C                    -0.347593
      2 C                    -0.110978
      3 C                     0.183790
      4 C                    -0.238467
      5 C                     0.194577
      6 C                    -0.115516
      7 C                    -0.347274
      8 C                    -0.236712
      9 C                    -0.104463
     10 S                     1.060689
     11 C                    -0.650814
     12 O                    -0.513609
     13 O                    -0.513712
     14 C                    -0.219603
     15 H                     0.153678
     16 H                     0.146151
     17 H                     0.140831
     18 H                     0.134187
     19 H                     0.130044
     20 H                     0.148593
     21 H                     0.152295
     22 H                     0.140269
     23 H                     0.203062
     24 H                     0.202956
     25 H                     0.228235
     26 H                     0.179385
  ----------------------------------------
  Sum of atomic charges =     0.000000

                    Cartesian Multipole Moments
 -----------------------------------------------------------------
    Charge (ESU x 10^10)
                 0.0000
    Dipole Moment (Debye)
         X       3.2154      Y      -3.5718      Z      -0.0051
       Tot       4.8059
    Quadrupole Moments (Debye-Ang)
        XX     -85.6507     XY      12.4772     YY     -78.8187
        XZ       0.0478     YZ      -0.0162     ZZ     -98.1981

 Total job time:  41.50s(wall), 41.06s(cpu)
        *  Thank you very much for using Q-Chem.  Have a nice day.  *
