 Q-Chem 5.2, Q-Chem, Inc., Pleasanton, CA (2019)
 Q-Chem 5.2.1 for Intel X86 EM64T Linux

User input:
--------------------------------------------------------------
$molecule
0 1
C        -3.34961787520000   -2.05340322000000   -0.00289150270000
C        -2.06559099220000   -1.70786934140000    0.00303454960000
C        -1.56144159660000   -0.35077435930000    0.00128610420000
C        -2.38147589910000    0.80925842040000    0.00087935780000
C        -1.67767080500000    1.96594582080000   -0.00015127730000
S         0.01830132080000    1.70463998750000   -0.00078020020000
C        -0.21373947260000   -0.01843321420000    0.00051322650000
C         0.90263821090000   -0.91714398880000   -0.00020550860000
C         2.18697176930000   -0.57518520550000   -0.00008417870000
F         2.68469056670000    0.65551091110000    0.00084623920000
F         3.18185410990000   -1.45921702070000   -0.00097035650000
H        -3.64696454030000   -3.08762159570000   -0.00088820870000
H        -4.14760532190000   -1.33184207200000   -0.01010384170000
H        -1.31931922520000   -2.49021910000000    0.00973680630000
H        -3.45504210410000    0.77802004610000    0.00172596080000
H        -2.05322980840000    2.96999010090000   -0.00055271240000
H         0.69932777400000   -1.97677676260000   -0.00113259770000
$end

$rem
BASIS = 6-31G*
GUI = 2
METHOD = B3LYP
PRINT_ORBITALS false
MOLDEN_FORMAT false
--------------------------------------------------------------

             Standard Nuclear Orientation (Angstroms)
    I     Atom           X                Y                Z
 ----------------------------------------------------------------
    1      C       3.2936491558     1.9375363631    -0.0028211124
    2      C       2.0004892495     1.6279292190     0.0030685858
    3      C       1.4587067205     0.2854147328     0.0013347057
    4      C       2.2460864054    -0.8970257864     0.0009837765
    5      C       1.5103121093    -2.0336451351    -0.0000439464
    6      S      -0.1777170504    -1.7251655412    -0.0007378322
    7      C       0.1022642924    -0.0092300181     0.0005229550
    8      C      -0.9886279459     0.9202506021    -0.0002557003
    9      C      -2.2819945552     0.6142255700    -0.0001708196
   10      F      -2.8138257004    -0.6021183549     0.0007714022
   11      F      -3.2518478330     1.5256462414    -0.0011123592
   12      H       3.6197091028     2.9630643516    -0.0008319294
   13      H       4.0712132044     1.1940114822    -0.0099887513
   14      H       1.2763152879     2.4307774990     0.0097264999
   15      H       3.3201061808    -0.8957252467     0.0018668585
   16      H       1.8577373996    -3.0477679961    -0.0004086558
   17      H      -0.7558591586     1.9738043060    -0.0012007604
 ----------------------------------------------------------------

    9    -906.2710368520      9.54e-06  Convergence criterion met
 Total energy in the final basis set =     -906.2710368520

                    Orbital Energies (a.u.)
 --------------------------------------------------------------

 Alpha MOs
 -- Occupied --
-88.9083 -24.7485 -24.7389 -10.3603 -10.2296 -10.2137 -10.2132 -10.2008
-10.1972 -10.1913 -10.1831  -7.9701  -5.9342  -5.9303  -5.9271  -1.2891
 -1.2294  -0.8950  -0.8123  -0.7967  -0.7262  -0.7200  -0.6444  -0.6074
 -0.5874  -0.5782  -0.5352  -0.5229  -0.5146  -0.4969  -0.4597  -0.4450
 -0.4359  -0.4291  -0.4217  -0.4059  -0.3982  -0.3803  -0.3649  -0.3392
 -0.3065  -0.3027  -0.2373  -0.2052

          Ground-State Mulliken Net Atomic Charges

     Atom                 Charge (a.u.)
  ----------------------------------------
      1 C                    -0.353632
      2 C                    -0.096148
      3 C                     0.144770
      4 C                    -0.128199
      5 C                    -0.353113
      6 S                     0.267918
      7 C                    -0.225268
      8 C                    -0.223312
      9 C                     0.537988
     10 F                    -0.227664
     11 F                    -0.246414
     12 H                     0.144722
     13 H                     0.142672
     14 H                     0.126938
     15 H                     0.142177
     16 H                     0.172974
     17 H                     0.173590
  ----------------------------------------
  Sum of atomic charges =     0.000000

                    Cartesian Multipole Moments
 -----------------------------------------------------------------
    Charge (ESU x 10^10)
                 0.0000
    Dipole Moment (Debye)
         X       1.3524      Y       0.3103      Z       0.0004
       Tot       1.3875
    Quadrupole Moments (Debye-Ang)
        XX     -66.4811     XY      -1.6667     YY     -62.5974
        XZ      -0.0102     YZ       0.0116     ZZ     -71.6869

 Total job time:  21.13s(wall), 19.92s(cpu)
        *  Thank you very much for using Q-Chem.  Have a nice day.  *
