 Q-Chem 5.2, Q-Chem, Inc., Pleasanton, CA (2019)
 Q-Chem 5.2.1 for Intel X86 EM64T Linux

User input:
--------------------------------------------------------------
$molecule
0 1
C         3.26760668150000    1.56019816560000    0.08864297410000
C         2.84337837140000    0.30963939960000   -0.04789030010000
C         1.46148710180000   -0.15398934460000   -0.02735809630000
C         1.20388320840000   -1.52116637720000   -0.13237800810000
C        -0.09141151490000   -1.99871368190000   -0.11060145350000
C        -1.17598312600000   -1.14259613880000    0.01462529070000
C        -2.57084289230000   -1.69122876320000    0.01736414000000
C        -0.93589200110000    0.23621089810000    0.11546881560000
C        -2.04861715300000    1.17756411490000    0.25400616490000
C        -2.06863681500000    2.40322634840000   -0.25057976020000
C         0.37242500390000    0.70473131940000    0.09550278300000
H         4.31646775720000    1.80143233220000    0.05952680510000
H         2.59920550800000    2.39103063170000    0.23632530760000
H         3.57543659800000   -0.47704892070000   -0.18866685260000
H         2.02832238650000   -2.21369362070000   -0.22856625990000
H        -0.26612925730000   -3.06251250920000   -0.19443700290000
H        -2.56060168690000   -2.76038252960000   -0.18065015190000
H        -3.17967045640000   -1.20218549050000   -0.74174792910000
H        -3.04598469230000   -1.52877495060000    0.98536846430000
H        -2.90729931190000    0.81708359480000    0.80520145970000
H        -1.25374515020000    2.79454737550000   -0.83660952740000
H        -2.91181213520000    3.05868369340000   -0.11250126000000
H         0.53844885820000    1.76565418790000    0.19652336200000
$end

$rem
BASIS = 6-31G*
GUI = 2
METHOD = B3LYP
PRINT_ORBITALS false
MOLDEN_FORMAT false
--------------------------------------------------------------

             Standard Nuclear Orientation (Angstroms)
    I     Atom           X                Y                Z
 ----------------------------------------------------------------
    1      C       3.4971449369    -0.9901814850    -0.0982302503
    2      C       2.8735833012     0.1751324248     0.0271595396
    3      C       1.4341088413     0.4046747814     0.0123186928
    4      C       0.9554989980     1.7120305712     0.1035077442
    5      C      -0.4008625778     1.9695385301     0.0865668597
    6      C      -1.3303637571     0.9450464082    -0.0200071261
    7      C      -2.7965218739     1.2565189262    -0.0179401009
    8      C      -0.8670868918    -0.3766090490    -0.1067447093
    9      C      -1.8103991747    -1.4899714151    -0.2254119681
   10      C      -1.6252696366    -2.6956608768     0.2935250506
   11      C       0.5006214515    -0.6230936456    -0.0918234259
   12      H       4.5715683117    -1.0550887720    -0.0747209673
   13      H       2.9738254063    -1.9215201031    -0.2308870794
   14      H       3.4669181542     1.0733224808     0.1529139576
   15      H       1.6551917023     2.5319879193     0.1850319008
   16      H      -0.7478837890     2.9910517495     0.1594342415
   17      H      -2.9613106301     2.3152173861     0.1675499394
   18      H      -3.3119366344     0.6836740753     0.7516584051
   19      H      -3.2442141608     1.0057140468    -0.9801520691
   20      H      -2.7200109562    -1.2828225912    -0.7738582099
   21      H      -0.7535618156    -2.9399897977     0.8775116197
   22      H      -2.3497983118    -3.4826763887     0.1698342806
   23      H       0.8384910205    -1.6434210279    -0.1818378573
 ----------------------------------------------------------------

    8    -426.3610150943      5.73e-06  Convergence criterion met
 Total energy in the final basis set =     -426.3610150943

                    Orbital Energies (a.u.)
 --------------------------------------------------------------

 Alpha MOs
 -- Occupied --
-10.1918 -10.1894 -10.1885 -10.1882 -10.1861 -10.1824 -10.1810 -10.1807
-10.1805 -10.1792 -10.1754  -0.8663  -0.8052  -0.7824  -0.7469  -0.7244
 -0.6821  -0.6291  -0.5996  -0.5653  -0.5477  -0.4948  -0.4805  -0.4605
 -0.4382  -0.4357  -0.4265  -0.4165  -0.4076  -0.3836  -0.3717  -0.3657
 -0.3595  -0.3367  -0.3284  -0.3022  -0.2791  -0.2303  -0.2137

          Ground-State Mulliken Net Atomic Charges

     Atom                 Charge (a.u.)
  ----------------------------------------
      1 C                    -0.353460
      2 C                    -0.116633
      3 C                     0.185596
      4 C                    -0.193967
      5 C                    -0.188829
      6 C                     0.125738
      7 C                    -0.535295
      8 C                     0.110979
      9 C                    -0.130666
     10 C                    -0.337010
     11 C                    -0.254154
     12 H                     0.142011
     13 H                     0.141987
     14 H                     0.124735
     15 H                     0.124666
     16 H                     0.120854
     17 H                     0.156249
     18 H                     0.168012
     19 H                     0.162872
     20 H                     0.132228
     21 H                     0.145391
     22 H                     0.141919
     23 H                     0.126776
  ----------------------------------------
  Sum of atomic charges =     0.000000

                    Cartesian Multipole Moments
 -----------------------------------------------------------------
    Charge (ESU x 10^10)
                 0.0000
    Dipole Moment (Debye)
         X      -0.5797      Y       0.2200      Z      -0.0200
       Tot       0.6204
    Quadrupole Moments (Debye-Ang)
        XX     -60.1046     XY       0.0779     YY     -59.8225
        XZ       1.2060     YZ       0.1391     ZZ     -69.3368

 Total job time:  23.16s(wall), 23.08s(cpu)
        *  Thank you very much for using Q-Chem.  Have a nice day.  *
