 Q-Chem 5.2, Q-Chem, Inc., Pleasanton, CA (2019)
 Q-Chem 5.2.1 for Intel X86 EM64T Linux

User input:
--------------------------------------------------------------
$molecule
0 1
C         1.76269606240000   -3.07804027910000    1.12078228630000
C         1.97560510610000   -2.18826740320000    0.16034168570000
C         0.96781540730000   -1.26891929340000   -0.36431643070000
C        -0.36465003320000   -1.66871866230000   -0.43893188310000
C        -1.36570665320000   -0.85238074250000   -0.93508521400000
C        -2.78622369470000   -1.34099180020000   -0.93938600140000
C        -3.61098702960000   -0.65454546410000    0.15513194890000
C        -5.06583210070000   -1.11607252290000    0.13733280810000
C        -5.90702318660000   -0.50305037280000    1.25709655000000
C        -6.14041114470000    0.99698542070000    1.08939715400000
C        -7.06690260240000    1.54363917040000    2.16887333790000
C        -1.02778786300000    0.43732459200000   -1.36913127350000
C        -2.03404507150000    1.35351737780000   -1.90252203450000
C        -2.01154351890000    2.67163534090000   -1.75607072610000
C         0.30557556330000    0.83457032110000   -1.30133661690000
C         1.30886913450000    0.01310918660000   -0.81809127450000
C         2.71537568400000    0.53379607760000   -0.73421590040000
C         3.08600148340000    0.86876499510000    0.71521204770000
C         4.49078734980000    1.45338623740000    0.85782035990000
C         5.59921911550000    0.44447169880000    0.56480117320000
C         6.98428496560000    1.02496909620000    0.84097723640000
C         8.09094886740000    0.02224001320000    0.53803784820000
H         2.54143384270000   -3.73860086050000    1.46286393020000
H         0.81112151830000   -3.16878151760000    1.61751366260000
H         2.96239693030000   -2.11431343000000   -0.27828243180000
H        -0.62122954090000   -2.66716923250000   -0.11442562940000
H        -2.79941661460000   -2.42062361780000   -0.77430895830000
H        -3.25166662240000   -1.15051151160000   -1.90971788980000
H        -3.55990822970000    0.42521989830000    0.00896990120000
H        -3.16778960170000   -0.88028786340000    1.12803982930000
H        -5.09034861660000   -2.20463890970000    0.23589212700000
H        -5.51356732330000   -0.86338681400000   -0.82720678750000
H        -5.41869425020000   -0.68710195140000    2.21702028210000
H        -6.87763794800000   -1.00547967550000    1.27990223960000
H        -6.57916920610000    1.18455590210000    0.10649889160000
H        -5.18765749270000    1.52688481690000    1.13540872770000
H        -8.03554302520000    1.04964712700000    2.12815572730000
H        -7.22110969130000    2.61220142930000    2.03727849340000
H        -6.64072859800000    1.37769828120000    3.15605125180000
H        -2.85081881050000    0.89832872270000   -2.44787672610000
H        -1.24255465670000    3.17232134850000   -1.19162148710000
H        -2.77637471070000    3.30108040700000   -2.17866644380000
H         0.56797207920000    1.81918638750000   -1.66161233310000
H         2.80500656730000    1.43705915180000   -1.34170672080000
H         3.41348356350000   -0.20510952270000   -1.13076476210000
H         3.00331312850000   -0.03339891360000    1.32542652630000
H         2.35962295780000    1.59106393570000    1.09648393410000
H         4.61250574030000    1.81673350490000    1.88152987940000
H         4.59668066170000    2.31206827630000    0.19014979770000
H         5.55165809860000    0.13306519500000   -0.48040668250000
H         5.45044781560000   -0.44289106690000    1.18518877460000
H         7.04647102650000    1.32788928750000    1.88886274280000
H         7.12796015960000    1.91935306010000    0.23006894130000
H         7.97461049740000   -0.87007465990000    1.14956393100000
H         9.06748777760000    0.45432561300000    0.74415009570000
H         8.06144249900000   -0.27468019520000   -0.50828677100000
$end

$rem
BASIS = 6-31G*
GUI = 2
METHOD = B3LYP
PRINT_ORBITALS false
MOLDEN_FORMAT false
--------------------------------------------------------------

             Standard Nuclear Orientation (Angstroms)
    I     Atom           X                Y                Z
 ----------------------------------------------------------------
    1      C      -1.7522798632    -3.2446074019    -0.5067510972
    2      C      -1.9704749735    -2.1934768758     0.2723430498
    3      C      -0.9658074266    -1.1917922990     0.6235955117
    4      C       0.3664683117    -1.5691096417     0.7770364816
    5      C       1.3645987509    -0.6739324092     1.1192110457
    6      C       2.7853241857    -1.1513662593     1.2203252656
    7      C       3.6152401285    -0.6770603501     0.0221240692
    8      C       5.0702114156    -1.1253385644     0.1316841555
    9      C       5.9167193399    -0.7278268508    -1.0777281847
   10      C       6.1484976619     0.7777668623    -1.1880313515
   11      C       7.0801356991     1.1175868605    -2.3452083091
   12      C       1.0238431973     0.6731660563     1.3066578842
   13      C       2.0269358995     1.6733553683     1.6670671864
   14      C       2.0045024618     2.9419216665     1.2802525561
   15      C      -0.3093635670     1.0492283306     1.1603869006
   16      C      -1.3097933298     0.1513895638     0.8318320573
   17      C      -2.7161240154     0.6457154807     0.6466659660
   18      C      -3.0796160118     0.7074878333    -0.8414424913
   19      C      -4.4839627434     1.2538401783    -1.0961027171
   20      C      -5.5933433419     0.3145673940    -0.6276679900
   21      C      -6.9772955744     0.8322957202    -1.0127542838
   22      C      -8.0849614319    -0.0990679157    -0.5356997750
   23      H      -2.5289493530    -3.9579798194    -0.7251016429
   24      H      -0.7981698926    -3.4239204811    -0.9736462985
   25      H      -2.9595006190    -2.0414156212     0.6850464038
   26      H       0.6251860106    -2.6098779748     0.6432182361
   27      H       2.7998967830    -2.2429127172     1.2569765207
   28      H       3.2457778340    -0.7847765279     2.1412260417
   29      H       3.5628773235     0.4110797809    -0.0333269713
   30      H       3.1770625831    -1.0787516652    -0.8947062644
   31      H       5.0957770235    -2.2134001870     0.2354149726
   32      H       5.5129551507    -0.6986995292     1.0353492745
   33      H       5.4333242949    -1.0862136525    -1.9896941029
   34      H       6.8876917851    -1.2244766487    -1.0028963215
   35      H       6.5822049806     1.1437728060    -0.2543729947
   36      H       5.1957187008     1.2887684189    -1.3354749573
   37      H       8.0488096442     0.6409261105    -2.2095040393
   38      H       7.2331352049     2.1923256362    -2.4119169720
   39      H       6.6590228390     0.7720702916    -3.2869955219
   40      H       2.8411840657     1.3275553473     2.2908861196
   41      H       1.2381116036     3.3289923386     0.6295186326
   42      H       2.7668758854     3.6395190792     1.5834020186
   43      H      -0.5740713038     2.0829780922     1.3318819909
   44      H      -2.8092719619     1.6452794181     1.0769662894
   45      H      -3.4158445367    -0.0085149019     1.1691225630
   46      H      -2.9933973470    -0.2915072569    -1.2746559996
   47      H      -2.3516937032     1.3482494950    -1.3456878470
   48      H      -4.6007088330     1.4222641400    -2.1697979734
   49      H      -4.5936533220     2.2206456476    -0.5985211876
   50      H      -5.5508883299     0.2010491733     0.4572314100
   51      H      -5.4409988672    -0.6716590133    -1.0732855258
   52      H      -7.0343576469     0.9369587924    -2.0987935760
   53      H      -7.1244998384     1.8236847099    -0.5777221505
   54      H      -7.9650915819    -1.0885757944    -0.9718529811
   55      H      -9.0606693918     0.2862737671    -0.8226043438
   56      H      -8.0605738211    -0.1981677359     0.5475416176
 ----------------------------------------------------------------

    8    -858.8062378789      4.50e-06  Convergence criterion met
 Total energy in the final basis set =     -858.8062378789

                    Orbital Energies (a.u.)
 --------------------------------------------------------------

 Alpha MOs
 -- Occupied --
-10.1866 -10.1862 -10.1854 -10.1852 -10.1835 -10.1834 -10.1787 -10.1784
-10.1767 -10.1764 -10.1754 -10.1754 -10.1733 -10.1722 -10.1716 -10.1716
-10.1714 -10.1714 -10.1712 -10.1703 -10.1666 -10.1653  -0.8674  -0.8195
 -0.8050  -0.8009  -0.7836  -0.7714  -0.7601  -0.7425  -0.7122  -0.7099
 -0.6843  -0.6494  -0.6331  -0.6259  -0.5965  -0.5855  -0.5772  -0.5724
 -0.5647  -0.5615  -0.5310  -0.4962  -0.4884  -0.4719  -0.4658  -0.4582
 -0.4562  -0.4418  -0.4381  -0.4371  -0.4244  -0.4206  -0.4139  -0.4125
 -0.4089  -0.4048  -0.3974  -0.3856  -0.3825  -0.3777  -0.3693  -0.3676
 -0.3556  -0.3542  -0.3505  -0.3468  -0.3425  -0.3362  -0.3311  -0.3306
 -0.3231  -0.3214  -0.3211  -0.3181  -0.3080  -0.3053  -0.2968  -0.2943
 -0.2622  -0.2326  -0.2079

          Ground-State Mulliken Net Atomic Charges

     Atom                 Charge (a.u.)
  ----------------------------------------
      1 C                    -0.341369
      2 C                    -0.134190
      3 C                     0.121942
      4 C                    -0.268756
      5 C                     0.132073
      6 C                    -0.355970
      7 C                    -0.263654
      8 C                    -0.251948
      9 C                    -0.246365
     10 C                    -0.252890
     11 C                    -0.440653
     12 C                     0.121447
     13 C                    -0.135093
     14 C                    -0.340797
     15 C                    -0.267555
     16 C                     0.130151
     17 C                    -0.358225
     18 C                    -0.259548
     19 C                    -0.251142
     20 C                    -0.251414
     21 C                    -0.248501
     22 C                    -0.441013
     23 H                     0.140107
     24 H                     0.143295
     25 H                     0.134909
     26 H                     0.120898
     27 H                     0.139242
     28 H                     0.140442
     29 H                     0.155279
     30 H                     0.133558
     31 H                     0.125537
     32 H                     0.124869
     33 H                     0.126859
     34 H                     0.125089
     35 H                     0.128055
     36 H                     0.140967
     37 H                     0.140743
     38 H                     0.140465
     39 H                     0.141896
     40 H                     0.134124
     41 H                     0.143530
     42 H                     0.140563
     43 H                     0.120649
     44 H                     0.138169
     45 H                     0.146414
     46 H                     0.146655
     47 H                     0.132963
     48 H                     0.128503
     49 H                     0.125782
     50 H                     0.130858
     51 H                     0.128348
     52 H                     0.130702
     53 H                     0.130489
     54 H                     0.141287
     55 H                     0.141222
     56 H                     0.141003
  ----------------------------------------
  Sum of atomic charges =     0.000000

                    Cartesian Multipole Moments
 -----------------------------------------------------------------
    Charge (ESU x 10^10)
                 0.0000
    Dipole Moment (Debye)
         X      -0.0460      Y       0.0852      Z      -0.1217
       Tot       0.1555
    Quadrupole Moments (Debye-Ang)
        XX    -133.9088     XY      -0.5318     YY    -134.5831
        XZ       2.3224     YZ       1.8822     ZZ    -140.7197

 Total job time:  114.83s(wall), 114.51s(cpu)
        *  Thank you very much for using Q-Chem.  Have a nice day.  *
