 Q-Chem 5.2, Q-Chem, Inc., Pleasanton, CA (2019)
 Q-Chem 5.2.1 for Intel X86 EM64T Linux

User input:
--------------------------------------------------------------
$molecule
0 1
C        -5.02611009950000   -4.03307682220000   -0.00545632370000
O        -3.63770583010000   -4.22257897200000    0.09352646180000
C        -2.83155495610000   -3.11814115640000    0.09283355820000
C        -3.28063392170000   -1.81131914210000    0.00899590330000
C        -2.33845413390000   -0.78719458830000    0.01318632940000
C        -2.45823243450000    0.64201114470000   -0.03135288100000
C        -3.55541258410000    1.49216265870000   -0.13061254120000
C        -3.32764062240000    2.85683752610000   -0.17870917370000
O        -4.30479966330000    3.80922564470000   -0.26834489870000
C        -5.64396558740000    3.38673693410000   -0.30834421870000
C        -2.01632628800000    3.35750865120000   -0.14905189980000
C        -0.92314114150000    2.52623947570000   -0.05123279600000
C        -1.14680458580000    1.15781589990000    0.02987075460000
N        -0.24419408250000    0.11139560980000    0.10152831660000
C         1.14309740730000    0.22947867260000    0.18072557410000
C         1.72676938540000    1.12103247900000    1.08023060810000
C         3.09800941700000    1.23250356240000    1.15328440770000
C         3.93255285790000    0.45836657330000    0.34189349420000
C         5.36846817250000    0.62550703010000    0.47916849670000
C         6.33942322370000   -0.00544674300000   -0.16571069280000
F         6.22890872120000   -0.94578411490000   -1.09717841250000
F         7.63196377580000    0.23588550410000    0.05054329550000
C         3.33927846130000   -0.43295995130000   -0.55572041350000
C         1.96737568480000   -0.54282779740000   -0.63701092270000
C        -0.95945483900000   -1.07339644220000    0.09008906070000
C        -0.51695798030000   -2.38493776760000    0.20519749340000
C        -1.45822355110000   -3.38967242770000    0.19972886580000
H        -5.46243480670000   -5.03073574950000    0.00516741950000
H        -5.29867476340000   -3.52993194900000   -0.93944552880000
H        -5.41623683300000   -3.45995212660000    0.84261624260000
H        -4.32905499970000   -1.56819551440000   -0.05168617220000
H        -4.54833529010000    1.07486551090000   -0.17458689720000
H        -6.23948755280000    4.29629110530000   -0.37060404100000
H        -5.92001607060000    2.83595412260000    0.59733110830000
H        -5.84418751280000    2.76392878070000   -1.18688098510000
H        -1.88983334510000    4.42653399600000   -0.21097871450000
H         0.07545778100000    2.93479572690000   -0.05318699140000
H         1.09761084400000    1.70711075760000    1.73256871000000
H         3.53694586570000    1.92306020060000    1.85845855500000
H         5.70114171030000    1.35717594580000    1.20148514830000
H         3.94930624860000   -1.03935880260000   -1.20460677270000
H         1.52195804050000   -1.21674723650000   -1.35270511670000
H         0.53091077320000   -2.61908921570000    0.31062722490000
H        -1.15970219420000   -4.42238343160000    0.28325269420000
$end

$rem
BASIS = 6-31G*
GUI = 2
METHOD = B3LYP
PRINT_ORBITALS false
MOLDEN_FORMAT false
--------------------------------------------------------------

             Standard Nuclear Orientation (Angstroms)
    I     Atom           X                Y                Z
 ----------------------------------------------------------------
    1      C       4.9310620983     4.0131949022     0.0164712404
    2      O       3.5431645364     4.2089378582     0.1102802208
    3      C       2.7319137935     3.1082578640     0.1040848313
    4      C       3.1752653862     1.7995389411     0.0193582550
    5      C       2.2283408354     0.7797926753     0.0176663963
    6      C       2.3416730202    -0.6498598880    -0.0293333282
    7      C       3.4352916942    -1.5048912678    -0.1259454035
    8      C       3.2013934647    -2.8683931866    -0.1777622137
    9      O       4.1744808861    -3.8251223340    -0.2654416958
   10      C       5.5157400254    -3.4087740002    -0.2992057969
   11      C       1.8876646396    -3.3630311309    -0.1543893398
   12      C       0.7979591809    -2.5268974545    -0.0592406541
   13      C       1.0276337831    -1.1596951074     0.0255739920
   14      N       0.1296014310    -0.1092443980     0.0957676667
   15      C      -1.2585292183    -0.2210475223     0.1691628625
   16      C      -1.8499340317    -1.1117145900     1.0644857065
   17      C      -3.2219582131    -1.2169678049     1.1318154234
   18      C      -4.0496401203    -0.4373122555     0.3186820198
   19      C      -5.4868542496    -0.5980648535     0.4498586118
   20      C      -6.4522774158     0.0387030211    -0.1976059264
   21      F      -6.3336667617     0.9804146345    -1.1266864887
   22      F      -7.7467804575    -0.1970670149     0.0129706272
   23      C      -3.4486417170     0.4530791020    -0.5747117120
   24      C      -2.0759291532     0.5567428191    -0.6502786986
   25      C       0.8503848390     1.0722354570     0.0896322065
   26      C       0.4135115124     2.3855793119     0.2056653260
   27      C       1.3594371467     3.3859427835     0.2060354348
   28      H       5.3719589463     5.0087938915     0.0308959164
   29      H       5.2050411018     3.5106957168    -0.9174517591
   30      H       5.3151197998     3.4365372812     0.8649189598
   31      H       4.2227838560     1.5516753253    -0.0376229068
   32      H       4.4303060321    -1.0921190376    -0.1650824305
   33      H       6.1072860894    -4.3209539848    -0.3609505704
   34      H       5.7907003125    -2.8611264669     0.6086997006
   35      H       5.7223724561    -2.7851118834    -1.1756499012
   36      H       1.7564690656    -4.4313292711    -0.2190220546
   37      H      -0.2025063105    -2.9308088987    -0.0660364688
   38      H      -1.2261229581    -1.7020361113     1.7181319900
   39      H      -3.6669183795    -1.9069159034     1.8338028352
   40      H      -5.8258128568    -1.3296529364     1.1693295073
   41      H      -4.0532420961     1.0636250900    -1.2247878256
   42      H      -1.6245227582     1.2300452974    -1.3627943173
   43      H      -0.6336759289     2.6243770550     0.3073774409
   44      H       1.0653714009     4.4198559595     0.2904873712
 ----------------------------------------------------------------

    9   -1253.4281355866      3.93e-06  Convergence criterion met
 Total energy in the final basis set =    -1253.4281355866

                    Orbital Energies (a.u.)
 --------------------------------------------------------------

 Alpha MOs
 -- Occupied --
-24.7470 -24.7361 -19.1700 -19.1698 -14.3792 -10.3590 -10.2368 -10.2367
-10.2356 -10.2354 -10.2354 -10.2148 -10.2147 -10.2102 -10.2060 -10.1982
-10.1960 -10.1959 -10.1952 -10.1866 -10.1864 -10.1843 -10.1839 -10.1819
-10.1817 -10.1795 -10.1793  -1.2875  -1.2265  -1.0599  -1.0597  -0.9981
 -0.8794  -0.8501  -0.8462  -0.8117  -0.7840  -0.7639  -0.7533  -0.7517
 -0.7314  -0.7296  -0.6963  -0.6887  -0.6492  -0.6317  -0.6279  -0.6177
 -0.5896  -0.5834  -0.5816  -0.5739  -0.5449  -0.5382  -0.5279  -0.5211
 -0.5187  -0.5051  -0.4911  -0.4825  -0.4666  -0.4656  -0.4654  -0.4620
 -0.4560  -0.4482  -0.4431  -0.4394  -0.4369  -0.4338  -0.4198  -0.4181
 -0.4152  -0.4103  -0.4090  -0.4042  -0.3913  -0.3822  -0.3796  -0.3693
 -0.3604  -0.3552  -0.3519  -0.3452  -0.3302  -0.3164  -0.3156  -0.3090
 -0.2889  -0.2677  -0.2638  -0.2362  -0.2279  -0.2001  -0.1801

          Ground-State Mulliken Net Atomic Charges

     Atom                 Charge (a.u.)
  ----------------------------------------
      1 C                    -0.207878
      2 O                    -0.512888
      3 C                     0.371082
      4 C                    -0.278234
      5 C                     0.057591
      6 C                     0.056848
      7 C                    -0.278452
      8 C                     0.371227
      9 O                    -0.512940
     10 C                    -0.208019
     11 C                    -0.186184
     12 C                    -0.171957
     13 C                     0.306119
     14 N                    -0.741601
     15 C                     0.294857
     16 C                    -0.163953
     17 C                    -0.208792
     18 C                     0.203716
     19 C                    -0.299667
     20 C                     0.543679
     21 F                    -0.234797
     22 F                    -0.247878
     23 C                    -0.208748
     24 C                    -0.164562
     25 C                     0.305562
     26 C                    -0.171726
     27 C                    -0.186100
     28 H                     0.166476
     29 H                     0.146418
     30 H                     0.146316
     31 H                     0.127399
     32 H                     0.127498
     33 H                     0.166473
     34 H                     0.146404
     35 H                     0.146509
     36 H                     0.134669
     37 H                     0.141680
     38 H                     0.153438
     39 H                     0.134061
     40 H                     0.160515
     41 H                     0.144543
     42 H                     0.153868
     43 H                     0.142429
     44 H                     0.134998
  ----------------------------------------
  Sum of atomic charges =     0.000000

                    Cartesian Multipole Moments
 -----------------------------------------------------------------
    Charge (ESU x 10^10)
                 0.0000
    Dipole Moment (Debye)
         X       1.6917      Y      -0.3705      Z       0.4318
       Tot       1.7848
    Quadrupole Moments (Debye-Ang)
        XX    -130.9318     XY       4.9775     YY    -152.7987
        XZ      -4.0799     YZ      -3.6776     ZZ    -153.8753

 Total job time:  141.90s(wall), 141.06s(cpu)
        *  Thank you very much for using Q-Chem.  Have a nice day.  *
