 Q-Chem 5.2, Q-Chem, Inc., Pleasanton, CA (2019)
 Q-Chem 5.2.1 for Intel X86 EM64T Linux

User input:
--------------------------------------------------------------
$molecule
0 1
C         3.57644715580000   -2.31486348220000   -0.01865905800000
C         2.25045393990000   -2.27389598370000    0.02517076640000
C         1.40950643270000   -1.08175193300000    0.01191610370000
C         1.92689680870000    0.21015861630000   -0.00123722570000
C         1.08619383800000    1.31719256300000   -0.01254672120000
C         1.68463415820000    2.64818555960000   -0.02285862080000
C         1.05000896580000    3.81271857020000    0.03292978360000
C        -0.29599437600000    1.11671906340000   -0.01493672380000
C        -0.84422534610000   -0.15597827810000   -0.00169315150000
C        -2.34557447080000   -0.40637978950000   -0.00276980400000
C        -3.16233692940000    0.88863087030000   -0.01525169400000
C        -2.71642178810000   -1.21603592110000   -1.25318099080000
C        -2.72174455110000   -1.19466302890000    1.25970482510000
C         0.02531778670000   -1.24132432570000    0.01306842120000
H         4.10803999200000   -3.25103457490000   -0.00495604360000
H         4.18739329800000   -1.43014222280000   -0.07122110880000
H         1.70243845040000   -3.20787889450000    0.07286628540000
H         2.99543570640000    0.36357426620000    0.00173862960000
H         2.76708211270000    2.64932363400000   -0.07707148480000
H        -0.02163129400000    3.89468499230000    0.09487087040000
H         1.58989075790000    4.74419743110000    0.02115764360000
H        -0.93640868950000    1.98112550830000   -0.03023860290000
H        -2.95341657600000    1.47517147110000   -0.90705593860000
H        -2.95539835140000    1.49063282840000    0.86667362420000
H        -4.22349803550000    0.64708177770000   -0.01442867290000
H        -2.43198747690000   -0.67150534640000   -2.15131362620000
H        -3.78982745740000   -1.39197870720000   -1.28122995730000
H        -2.21403137940000   -2.17922411660000   -1.26646799890000
H        -2.43757792920000   -0.63656813940000    2.14955785730000
H        -2.22264951520000   -2.15915387020000    1.28973896090000
H        -3.79574664580000   -1.36681842340000    1.28814240360000
H        -0.36929187460000   -2.24699891930000    0.02333762750000
$end

$rem
BASIS = 6-31G*
GUI = 2
METHOD = B3LYP
PRINT_ORBITALS false
MOLDEN_FORMAT false
--------------------------------------------------------------

             Standard Nuclear Orientation (Angstroms)
    I     Atom           X                Y                Z
 ----------------------------------------------------------------
    1      C       3.6170270754     2.3288378266     0.0173929597
    2      C       2.2912710200     2.2804460419    -0.0260410671
    3      C       1.4570124010     1.0836156151    -0.0124278540
    4      C       1.9816286422    -0.2053779291     0.0006916457
    5      C       1.1471376677    -1.3170983992     0.0123517710
    6      C       1.7530204646    -2.6447204557     0.0226094833
    7      C       1.1249060207    -3.8127920898    -0.0328839108
    8      C      -0.2361500746    -1.1243631201     0.0151319182
    9      C      -0.7914989265     0.1452449118     0.0019330652
   10      C      -2.2942255153     0.3872404230     0.0034304871
   11      C      -3.1037240060    -0.9123197245     0.0162732633
   12      C      -2.6692291847     1.1949258275     1.2538765897
   13      C      -2.6751738550     1.1732876038    -1.2590055612
   14      C       0.0719521136     1.2354389002    -0.0131856636
   15      H       4.1433682881     3.2679679847     0.0034464571
   16      H       4.2329304308     1.4475544705     0.0698559713
   17      H       1.7380230750     3.2113429210    -0.0736606946
   18      H       3.0510084641    -0.3528114637    -0.0025859661
   19      H       2.8354737891    -2.6397955911     0.0765024338
   20      H       0.0537230304    -3.9007603902    -0.0945006156
   21      H       1.6699957805    -4.7412338498    -0.0211854869
   22      H      -0.8717122108    -1.9923386151     0.0307028398
   23      H      -2.8912612009    -1.4975982203     0.9080697871
   24      H      -2.8936798798    -1.5132369215    -0.8656576790
   25      H      -4.1662205073    -0.6767131952     0.0157416905
   26      H      -2.3814868469     0.6520799015     2.1519753051
   27      H      -3.7435943740     1.3648612624     1.2822266730
   28      H      -2.1722331754     2.1609117696     1.2669262504
   29      H      -2.3881509608     0.6167082439    -2.1488910976
   30      H      -2.1814932419     2.1405536626    -1.2892761882
   31      H      -3.7501309347     1.3394270664    -1.2871414946
   32      H      -0.3282825856     2.2388883755    -0.0234309442
 ----------------------------------------------------------------

    8    -544.2997877936      6.62e-06  Convergence criterion met
 Total energy in the final basis set =     -544.2997877936

                    Orbital Energies (a.u.)
 --------------------------------------------------------------

 Alpha MOs
 -- Occupied --
-10.1980 -10.1908 -10.1907 -10.1880 -10.1877 -10.1873 -10.1810 -10.1805
-10.1791 -10.1773 -10.1771 -10.1708 -10.1702 -10.1702  -0.8691  -0.8241
 -0.8012  -0.7655  -0.7264  -0.7202  -0.6867  -0.6865  -0.6276  -0.6194
 -0.5881  -0.5389  -0.5278  -0.5101  -0.4826  -0.4592  -0.4523  -0.4493
 -0.4414  -0.4246  -0.4213  -0.4049  -0.3987  -0.3794  -0.3758  -0.3726
 -0.3667  -0.3660  -0.3596  -0.3423  -0.3326  -0.3185  -0.3141  -0.3133
 -0.2739  -0.2264  -0.2155

          Ground-State Mulliken Net Atomic Charges

     Atom                 Charge (a.u.)
  ----------------------------------------
      1 C                    -0.354217
      2 C                    -0.112900
      3 C                     0.191802
      4 C                    -0.272486
      5 C                     0.195198
      6 C                    -0.111299
      7 C                    -0.357011
      8 C                    -0.269135
      9 C                     0.201110
     10 C                     0.002165
     11 C                    -0.455136
     12 C                    -0.437479
     13 C                    -0.437655
     14 C                    -0.272000
     15 H                     0.142892
     16 H                     0.142537
     17 H                     0.124146
     18 H                     0.123421
     19 H                     0.125132
     20 H                     0.142710
     21 H                     0.143019
     22 H                     0.124136
     23 H                     0.146756
     24 H                     0.146260
     25 H                     0.141893
     26 H                     0.148744
     27 H                     0.138959
     28 H                     0.143664
     29 H                     0.148750
     30 H                     0.143605
     31 H                     0.139035
     32 H                     0.123382
  ----------------------------------------
  Sum of atomic charges =     0.000000

                    Cartesian Multipole Moments
 -----------------------------------------------------------------
    Charge (ESU x 10^10)
                 0.0000
    Dipole Moment (Debye)
         X      -0.5175      Y       0.1384      Z       0.0022
       Tot       0.5357
    Quadrupole Moments (Debye-Ang)
        XX     -79.4232     XY      -0.3149     YY     -80.6042
        XZ       0.1986     YZ      -0.0944     ZZ     -90.1152

 Total job time:  43.97s(wall), 43.83s(cpu)
        *  Thank you very much for using Q-Chem.  Have a nice day.  *
