 Q-Chem 5.2, Q-Chem, Inc., Pleasanton, CA (2019)
 Q-Chem 5.2.1 for Intel X86 EM64T Linux

User input:
--------------------------------------------------------------
$molecule
0 1
C         3.89141474260000   -1.30957707750000   -0.05550666360000
C         3.08300812080000   -0.26020004460000    0.03167407430000
C         1.62741515740000   -0.28276720150000    0.02201236910000
C         0.87039898530000   -1.45044134950000   -0.01346241830000
N        -0.45160606550000   -1.46689254310000   -0.01833510700000
C        -1.11073651160000   -0.32176511330000    0.01006627980000
O        -2.45449855210000   -0.35720827180000   -0.00264626760000
C        -3.04361116350000   -1.64186861580000   -0.04065522910000
C        -0.47004919100000    0.93975470390000    0.04994753700000
C        -1.27236386560000    2.15403069230000    0.09061288710000
C        -0.82731030350000    3.38880575240000   -0.10800414110000
C         0.91549970050000    0.92098991180000    0.05966060770000
H         4.96138030350000   -1.19261622680000   -0.04108455330000
H         3.52766601690000   -2.31838194270000   -0.14589998430000
H         3.51385636010000    0.73078757280000    0.11504844050000
H         1.33119002610000   -2.42772489780000   -0.03226538750000
H        -4.11916739200000   -1.47709775630000   -0.04193841320000
H        -2.74781382840000   -2.22807894200000    0.83205169370000
H        -2.73873381550000   -2.17922457070000   -0.94117737250000
H        -2.32240013580000    1.98550788090000    0.28567726780000
H         0.20285343560000    3.60884728830000   -0.33185723390000
H        -1.49040009700000    4.23528326610000   -0.06173165470000
H         1.46081948260000    1.85243474280000    0.10769510950000
$end

$rem
BASIS = 6-31G*
GUI = 2
METHOD = B3LYP
PRINT_ORBITALS false
MOLDEN_FORMAT false
--------------------------------------------------------------

             Standard Nuclear Orientation (Angstroms)
    I     Atom           X                Y                Z
 ----------------------------------------------------------------
    1      C       4.0700640140    -0.4824700334    -0.0496767041
    2      C       3.0622089297     0.3774928004     0.0340248979
    3      C       1.6426997502     0.0546069589     0.0244372573
    4      C       1.1433249902    -1.2444006833    -0.0071674239
    5      N      -0.1467463597    -1.5336832963    -0.0119862736
    6      C      -1.0282917473    -0.5493821617     0.0126190111
    7      O      -2.3357208044    -0.8617679107     0.0000232838
    8      C      -2.6466407439    -2.2405500585    -0.0337277093
    9      C      -0.6621298620     0.8174221367     0.0483190181
   10      C      -1.6980660783     1.8398322094     0.0849589244
   11      C      -1.5176260479     3.1392711403    -0.1177495028
   12      C       0.6973874000     1.0853949649     0.0580949830
   13      H       5.0927601841    -0.1468963403    -0.0356417667
   14      H       3.9226794332    -1.5449537048    -0.1367259851
   15      H       3.2789313419     1.4363861014     0.1141143555
   16      H       1.7961228733    -2.1054336527    -0.0227307791
   17      H      -3.7330308675    -2.3015863937    -0.0355576113
   18      H      -2.2366952507    -2.7501540682     0.8409176068
   19      H      -2.2366906790    -2.7062285029    -0.9324636444
   20      H      -2.6907522739     1.4586070317     0.2805802430
   21      H      -0.5550092137     3.5667032150    -0.3423301479
   22      H      -2.3413467958     3.8306091325    -0.0742833270
   23      H       1.0384385732     2.1095698997     0.1030421903
 ----------------------------------------------------------------

    9    -517.6164124267      1.91e-06  Convergence criterion met
 Total energy in the final basis set =     -517.6164124267

                    Orbital Energies (a.u.)
 --------------------------------------------------------------

 Alpha MOs
 -- Occupied --
-19.1833 -14.3255 -10.2760 -10.2309 -10.2207 -10.2017 -10.2003 -10.1959
-10.1932 -10.1890 -10.1801 -10.1801  -1.0835  -0.9423  -0.8304  -0.8088
 -0.7486  -0.7446  -0.6982  -0.6562  -0.6173  -0.5876  -0.5487  -0.5387
 -0.5212  -0.4760  -0.4743  -0.4610  -0.4438  -0.4382  -0.4260  -0.4060
 -0.3986  -0.3852  -0.3700  -0.3601  -0.3421  -0.3371  -0.3167  -0.2942
 -0.2615  -0.2448  -0.2079

          Ground-State Mulliken Net Atomic Charges

     Atom                 Charge (a.u.)
  ----------------------------------------
      1 C                    -0.355877
      2 C                    -0.114998
      3 C                     0.153442
      4 C                    -0.014117
      5 N                    -0.505313
      6 C                     0.489694
      7 O                    -0.484501
      8 C                    -0.201187
      9 C                     0.105254
     10 C                    -0.107509
     11 C                    -0.348958
     12 C                    -0.232142
     13 H                     0.144550
     14 H                     0.144117
     15 H                     0.127295
     16 H                     0.139201
     17 H                     0.157481
     18 H                     0.163248
     19 H                     0.163506
     20 H                     0.153045
     21 H                     0.139402
     22 H                     0.145961
     23 H                     0.138408
  ----------------------------------------
  Sum of atomic charges =     0.000000

                    Cartesian Multipole Moments
 -----------------------------------------------------------------
    Charge (ESU x 10^10)
                 0.0000
    Dipole Moment (Debye)
         X       0.1598      Y       0.1776      Z       0.0279
       Tot       0.2406
    Quadrupole Moments (Debye-Ang)
        XX     -63.5387     XY       2.8851     YY     -64.0813
        XZ      -0.3674     YZ       0.0628     ZZ     -73.4553

 Total job time:  28.18s(wall), 27.57s(cpu)
        *  Thank you very much for using Q-Chem.  Have a nice day.  *
