 Q-Chem 5.2, Q-Chem, Inc., Pleasanton, CA (2019)
 Q-Chem 5.2.1 for Intel X86 EM64T Linux

User input:
--------------------------------------------------------------
$molecule
0 1
C         3.34325975220000   -1.55390200310000   -0.07688265680000
C         2.79022473340000   -0.35194371130000    0.02731875840000
C         1.36459889190000   -0.04235132000000    0.02309394120000
C         0.97419190920000    1.29683399620000    0.00356905380000
C        -0.36947255720000    1.64107345660000   -0.00336793180000
O        -0.77988007240000    2.94017030970000   -0.02197196890000
C        -1.34299360040000    0.65183103150000    0.01133270200000
C        -0.97762469710000   -0.69153540430000    0.03389746570000
C        -1.96022674320000   -1.77032830750000    0.05188676520000
C        -3.27596043950000   -1.64714094120000   -0.07050544500000
C         0.37635825430000   -1.02160821760000    0.04283680540000
H         4.41234915010000   -1.68019507580000   -0.06657909240000
H         2.76474401480000   -2.45550226630000   -0.18056415470000
H         3.43706917620000    0.51297155090000    0.11650776680000
H         1.72686629640000    2.07566094860000   -0.00814555140000
H        -0.01260204630000    3.52476762990000   -0.02882242440000
H        -2.37615720390000    0.95589981920000    0.01333730830000
H        -1.53604450770000   -2.76041927930000    0.16887051720000
H        -3.76252454560000   -0.69610374510000   -0.20088367730000
H        -3.92267692150000   -2.50763402680000   -0.04862115010000
H         0.65721081340000   -2.06293103810000    0.06911997370000
$end

$rem
BASIS = 6-31G*
GUI = 2
METHOD = B3LYP
PRINT_ORBITALS false
MOLDEN_FORMAT false
--------------------------------------------------------------

             Standard Nuclear Orientation (Angstroms)
    I     Atom           X                Y                Z
 ----------------------------------------------------------------
    1      C       3.3072817412    -1.5800005140    -0.0767717662
    2      C       2.7754449519    -0.3684960430     0.0272279861
    3      C       1.3554620470    -0.0339676262     0.0235366534
    4      C       0.9885760241     1.3118468732     0.0036841016
    5      C      -0.3488521478     1.6795795986    -0.0027698776
    6      O      -0.7364377765     2.9856626594    -0.0216773139
    7      C      -1.3395538083     0.7075562938     0.0127485173
    8      C      -0.9977738864    -0.6419987481     0.0356539471
    9      C      -1.9991230558    -1.7033984041     0.0544989715
   10      C      -3.3125522455    -1.5572159897    -0.0673394680
   11      C       0.3502203899    -0.9957471022     0.0441002220
   12      H       4.3739982384    -1.7250069628    -0.0669082538
   13      H       2.7130058722    -2.4713616437    -0.1798487953
   14      H       3.4373893922     0.4849828543     0.1157952099
   15      H       1.7547787006     2.0773586433    -0.0086680394
   16      H       0.0409645594     3.5567205000    -0.0290986121
   17      H      -2.3672287149     1.0296860644     0.0151096409
   18      H      -1.5923037902    -2.7007281129     0.1716631160
   19      H      -3.7824344327    -0.5978457179    -0.1978548803
   20      H      -3.9742398413    -2.4062345769    -0.0448351366
   21      H       0.6127921661    -2.0418223531     0.0706485389
 ----------------------------------------------------------------

    9    -462.2619562660      1.65e-06  Convergence criterion met
 Total energy in the final basis set =     -462.2619562660

                    Orbital Energies (a.u.)
 --------------------------------------------------------------

 Alpha MOs
 -- Occupied --
-19.1783 -10.2479 -10.1973 -10.1957 -10.1915 -10.1884 -10.1870 -10.1809
-10.1799 -10.1794 -10.1783  -1.0620  -0.8642  -0.8046  -0.7747  -0.7291
 -0.7256  -0.6359  -0.6247  -0.5951  -0.5396  -0.5211  -0.5070  -0.4898
 -0.4556  -0.4449  -0.4241  -0.4202  -0.4107  -0.3841  -0.3779  -0.3633
 -0.3545  -0.3492  -0.3373  -0.3168  -0.2638  -0.2206  -0.2158

          Ground-State Mulliken Net Atomic Charges

     Atom                 Charge (a.u.)
  ----------------------------------------
      1 C                    -0.350217
      2 C                    -0.115020
      3 C                     0.187936
      4 C                    -0.275866
      5 C                     0.371030
      6 O                    -0.647926
      7 C                    -0.228660
      8 C                     0.184561
      9 C                    -0.113319
     10 C                    -0.351133
     11 C                    -0.272413
     12 H                     0.144330
     13 H                     0.145248
     14 H                     0.124288
     15 H                     0.114073
     16 H                     0.408284
     17 H                     0.135463
     18 H                     0.126870
     19 H                     0.146022
     20 H                     0.144075
     21 H                     0.122373
  ----------------------------------------
  Sum of atomic charges =     0.000000

                    Cartesian Multipole Moments
 -----------------------------------------------------------------
    Charge (ESU x 10^10)
                 0.0000
    Dipole Moment (Debye)
         X       1.2845      Y       0.4760      Z      -0.0067
       Tot       1.3699
    Quadrupole Moments (Debye-Ang)
        XX     -59.3685     XY       5.0937     YY     -55.1008
        XZ       0.2042     YZ      -0.1080     ZZ     -69.1124

 Total job time:  24.02s(wall), 23.30s(cpu)
        *  Thank you very much for using Q-Chem.  Have a nice day.  *
