 Q-Chem 5.2, Q-Chem, Inc., Pleasanton, CA (2019)
 Q-Chem 5.2.1 for Intel X86 EM64T Linux

User input:
--------------------------------------------------------------
$molecule
0 1
C        -3.93840247350000   -1.69491782650000   -0.48121056450000
C        -3.60664174600000   -0.50847493900000    0.01430317820000
C        -2.26111134060000    0.03836836950000    0.09731547060000
C        -2.07037984630000    1.36320685610000    0.50749617840000
N        -0.90231648940000    1.96230332990000    0.55373393790000
C         0.19849960970000    1.29105029440000    0.22603771380000
C         1.42573004950000    2.07866137740000    0.18324563730000
C         2.42593573250000    1.87315610330000   -0.66277076280000
C         0.13870345010000   -0.07844489970000   -0.09021739750000
C         1.34792047310000   -0.92109357030000   -0.28751962820000
O         1.51408016220000   -1.67792857020000   -1.21049774780000
O         2.20484971030000   -0.78344039090000    0.73317948040000
C         3.40445438480000   -1.53864813040000    0.65769891180000
C        -1.10328388430000   -0.68831159970000   -0.18118612640000
H        -4.96351930150000   -2.02147642010000   -0.51055705590000
H        -3.21220455950000   -2.38147006010000   -0.88151561960000
H        -4.38196288650000    0.14855206180000    0.38880155670000
H        -2.91543612500000    1.97412457960000    0.80143839280000
H         1.43393447040000    2.92451777110000    0.85630820520000
H         2.40948419730000    1.07698760190000   -1.38973441840000
H         3.29455469430000    2.50921535650000   -0.67266241340000
H         3.82309438590000   -1.55178704150000    1.66073473870000
H         4.10119119100000   -1.06385505760000   -0.03669886320000
H         3.19388631500000   -2.55275118510000    0.31172082720000
H        -1.15075609150000   -1.73390202370000   -0.44578922260000
$end

$rem
BASIS = 6-31G*
GUI = 2
METHOD = B3LYP
PRINT_ORBITALS false
MOLDEN_FORMAT false
--------------------------------------------------------------

             Standard Nuclear Orientation (Angstroms)
    I     Atom           X                Y                Z
 ----------------------------------------------------------------
    1      C       3.9985716255    -1.6130676075     0.2140923950
    2      C       3.6266281084    -0.3829636387    -0.1201949377
    3      C       2.2654162857     0.1303261016    -0.1161043621
    4      C       2.0319345183     1.4907682593    -0.3495719859
    5      N       0.8472286868     2.0563249127    -0.3043582087
    6      C      -0.2294792673     1.3164956567    -0.0531328305
    7      C      -1.4771440181     2.0557253140     0.1053888259
    8      C      -2.4581273420     1.7138151720     0.9294984959
    9      C      -0.1270865599    -0.0799641590     0.0829762408
   10      C      -1.3094302943    -0.9760872295     0.1840578777
   11      O      -1.4404006902    -1.8499528456     1.0035104443
   12      O      -2.1854814226    -0.7334082612    -0.8001901218
   13      C      -3.3625080244    -1.5268960651    -0.8087285614
   14      C       1.1324936696    -0.6597858176     0.0798569525
   15      H       5.0326301224    -1.9104883692     0.1889894445
   16      H       3.2978373613    -2.3664222307     0.5309359207
   17      H       4.3776731840     0.3392432884    -0.4158380250
   18      H       2.8551942260     2.1589470629    -0.5721099481
   19      H      -1.5190464864     2.9805587375    -0.4527159077
   20      H      -2.4085192947     0.8315400799     1.5473664395
   21      H      -3.3436905271     2.3175678009     1.0316196368
   22      H      -3.7960600217    -1.4231119625    -1.8000783873
   23      H      -4.0612640188    -1.1660496224    -0.0507121935
   24      H      -3.1187547951    -2.5704773994    -0.5990451942
   25      H       1.2128441350    -1.7288888355     0.2067044339
 ----------------------------------------------------------------

    9    -630.9502182396      5.92e-06  Convergence criterion met
 Total energy in the final basis set =     -630.9502182396

                    Orbital Energies (a.u.)
 --------------------------------------------------------------

 Alpha MOs
 -- Occupied --
-19.1945 -19.1398 -14.3316 -10.3199 -10.2409 -10.2374 -10.2270 -10.2142
-10.2133 -10.2099 -10.2015 -10.1928 -10.1908 -10.1887  -1.1128  -1.0230
 -0.9589  -0.8358  -0.8194  -0.7807  -0.7440  -0.7304  -0.6633  -0.6500
 -0.5891  -0.5861  -0.5662  -0.5260  -0.5180  -0.5006  -0.4860  -0.4748
 -0.4702  -0.4435  -0.4347  -0.4269  -0.4153  -0.4113  -0.4012  -0.3975
 -0.3682  -0.3607  -0.3544  -0.3332  -0.3074  -0.2993  -0.2795  -0.2732
 -0.2548  -0.2283

          Ground-State Mulliken Net Atomic Charges

     Atom                 Charge (a.u.)
  ----------------------------------------
      1 C                    -0.347875
      2 C                    -0.116172
      3 C                     0.144367
      4 C                    -0.009748
      5 N                    -0.481396
      6 C                     0.257889
      7 C                    -0.075204
      8 C                    -0.349905
      9 C                     0.066236
     10 C                     0.500996
     11 O                    -0.480039
     12 O                    -0.421680
     13 C                    -0.223831
     14 C                    -0.177247
     15 H                     0.151464
     16 H                     0.150930
     17 H                     0.135561
     18 H                     0.144019
     19 H                     0.150723
     20 H                     0.162976
     21 H                     0.151070
     22 H                     0.167893
     23 H                     0.162604
     24 H                     0.176839
     25 H                     0.159531
  ----------------------------------------
  Sum of atomic charges =     0.000000

                    Cartesian Multipole Moments
 -----------------------------------------------------------------
    Charge (ESU x 10^10)
                 0.0000
    Dipole Moment (Debye)
         X      -0.2181      Y      -0.6494      Z      -1.1370
       Tot       1.3275
    Quadrupole Moments (Debye-Ang)
        XX     -63.8657     XY      -1.9825     YY     -82.7258
        XZ       1.5406     YZ       3.3084     ZZ     -83.9990

 Total job time:  41.20s(wall), 41.06s(cpu)
        *  Thank you very much for using Q-Chem.  Have a nice day.  *
