 Q-Chem 5.2, Q-Chem, Inc., Pleasanton, CA (2019)
 Q-Chem 5.2.1 for Intel X86 EM64T Linux

User input:
--------------------------------------------------------------
$molecule
0 1
C        -3.95212202320000    0.89907580610000   -0.05471467720000
C        -3.22233083890000   -0.21016176510000   -0.06335789930000
C        -1.76911857020000   -0.28132267500000   -0.02895067080000
C        -1.14231021520000   -1.52402058060000    0.14568171220000
N         0.15770280720000   -1.69010478510000    0.16354997090000
C         0.94985884900000   -0.62664536780000    0.03477837900000
C         2.33711754880000   -0.92735660520000   -0.00603586430000
N         3.44458209370000   -1.21869864580000   -0.06140043220000
C         0.45396421000000    0.68426466550000   -0.10952139290000
C         1.29424969300000    1.87144845310000   -0.21567858090000
C         2.49366689990000    2.02557694460000    0.32927275340000
C        -0.93149500990000    0.82267588970000   -0.16372515350000
H        -5.02736430990000    0.85997999790000   -0.07497957140000
H        -3.51767146350000    1.88362756580000   -0.01893969460000
H        -3.71774202320000   -1.17271690650000   -0.08265074650000
H        -1.72734292910000   -2.42660981490000    0.26809689460000
H         0.84036263300000    2.69379329500000   -0.75620412690000
H         2.96951400090000    1.25511131270000    0.91055751840000
H         3.04044936360000    2.94617781400000    0.21809861660000
H        -1.34866318110000    1.80888651180000   -0.30752135180000
$end

$rem
BASIS = 6-31G*
GUI = 2
METHOD = B3LYP
PRINT_ORBITALS false
MOLDEN_FORMAT false
--------------------------------------------------------------

             Standard Nuclear Orientation (Angstroms)
    I     Atom           X                Y                Z
 ----------------------------------------------------------------
    1      C       3.8991963136    -0.8600106035     0.0421723063
    2      C       3.1723148668     0.2497905908    -0.0131679026
    3      C       1.7188872658     0.3245812534    -0.0078579123
    4      C       1.0918992355     1.5730837713     0.1178828541
    5      N      -0.2078255610     1.7419823908     0.1066665380
    6      C      -0.9999792808     0.6765803983    -0.0049145010
    7      C      -2.3855316935     0.9784464232    -0.0804205649
    8      N      -3.4910917702     1.2700051401    -0.1649993420
    9      C      -0.5046041460    -0.6389582841    -0.1007293409
   10      C      -1.3455894997    -1.8272647093    -0.1869027801
   11      C      -2.5552344014    -1.9628352429     0.3400782698
   12      C       0.8812889874    -0.7814390440    -0.1250690316
   13      H       4.9747189301    -0.8234862674     0.0406899271
   14      H       3.4618315664    -1.8422614438     0.0993096015
   15      H       3.6702730242     1.2104378179    -0.0520450694
   16      H       1.6767026031     2.4778727226     0.2240810357
   17      H      -0.8837364537    -2.6662455410    -0.6940864709
   18      H      -3.0399196513    -1.1744501206     0.8891400505
   19      H      -3.1020445045    -2.8853604176     0.2463620743
   20      H       1.2987099187    -1.7722667844    -0.2315499029
 ----------------------------------------------------------------

    9    -495.3176247834      5.84e-06  Convergence criterion met
 Total energy in the final basis set =     -495.3176247834

                    Orbital Energies (a.u.)
 --------------------------------------------------------------

 Alpha MOs
 -- Occupied --
-14.3517 -14.3328 -10.2657 -10.2390 -10.2332 -10.2276 -10.2248 -10.2232
-10.2146 -10.2101 -10.2059 -10.1988  -0.9784  -0.9082  -0.8538  -0.8362
 -0.7729  -0.7665  -0.6932  -0.6597  -0.6108  -0.5896  -0.5620  -0.5319
 -0.4990  -0.4824  -0.4584  -0.4481  -0.4347  -0.4247  -0.4190  -0.3913
 -0.3745  -0.3665  -0.3593  -0.3371  -0.3295  -0.3250  -0.2762  -0.2661
 -0.2469

          Ground-State Mulliken Net Atomic Charges

     Atom                 Charge (a.u.)
  ----------------------------------------
      1 C                    -0.341184
      2 C                    -0.118988
      3 C                     0.159021
      4 C                    -0.011441
      5 N                    -0.450139
      6 C                     0.228659
      7 C                     0.296720
      8 N                    -0.481304
      9 C                     0.168553
     10 C                    -0.129563
     11 C                    -0.334297
     12 C                    -0.216206
     13 H                     0.158756
     14 H                     0.151109
     15 H                     0.143071
     16 H                     0.152695
     17 H                     0.141488
     18 H                     0.179274
     19 H                     0.156840
     20 H                     0.146936
  ----------------------------------------
  Sum of atomic charges =     0.000000

                    Cartesian Multipole Moments
 -----------------------------------------------------------------
    Charge (ESU x 10^10)
                 0.0000
    Dipole Moment (Debye)
         X       4.7984      Y      -3.3223      Z       0.1701
       Tot       5.8388
    Quadrupole Moments (Debye-Ang)
        XX     -73.1100     XY       9.0639     YY     -66.8261
        XZ      -1.8468     YZ       0.8603     ZZ     -70.5831

 Total job time:  24.65s(wall), 24.56s(cpu)
        *  Thank you very much for using Q-Chem.  Have a nice day.  *
