 Q-Chem 5.2, Q-Chem, Inc., Pleasanton, CA (2019)
 Q-Chem 5.2.1 for Intel X86 EM64T Linux

User input:
--------------------------------------------------------------
$molecule
0 1
C         4.28430243170000    0.60677355770000    0.39596272680000
C         3.29482737180000   -0.27496023770000    0.48601755070000
C         1.88157970200000   -0.06192341010000    0.20281687770000
C         0.99437842990000   -1.11930186490000    0.40900236980000
C        -0.37248581020000   -1.04670894250000    0.16279119070000
C        -1.15786079620000   -2.27215684990000    0.33863818530000
C        -2.12153413930000   -2.68619307520000   -0.47140823250000
C        -0.89499970030000    0.18093097290000   -0.25824914590000
S        -2.63529351030000    0.48553623230000   -0.50012798470000
C        -3.24793816280000    0.13998378890000    1.17764882700000
C        -0.04322074600000    1.25150495380000   -0.48090824850000
C         1.31411744110000    1.12477614720000   -0.26910750560000
F         2.07445526120000    2.21127479150000   -0.51693703340000
H         5.29460128430000    0.32146710280000    0.63670541210000
H         4.14309936810000    1.62635139150000    0.08759036610000
H         3.52253191900000   -1.28423743090000    0.80843875560000
H         1.39702432590000   -2.06095573350000    0.75612036890000
H        -0.84406229930000   -2.89598996970000    1.16772523120000
H        -2.43543368490000   -2.11268959830000   -1.32658130550000
H        -2.62947762280000   -3.62134271670000   -0.30649552100000
H        -4.30975209960000    0.36188416730000    1.16334893160000
H        -2.73813031020000    0.79009425590000    1.88220589030000
H        -3.08372924640000   -0.90452795660000    1.42355099600000
H        -0.44094584650000    2.19591527020000   -0.81786031660000
$end

$rem
BASIS = 6-31G*
GUI = 2
METHOD = B3LYP
PRINT_ORBITALS false
MOLDEN_FORMAT false
--------------------------------------------------------------

             Standard Nuclear Orientation (Angstroms)
    I     Atom           X                Y                Z
 ----------------------------------------------------------------
    1      C       4.3420562892     0.4169774374    -0.2485030840
    2      C       3.1750770502     1.0516281509    -0.2467201079
    3      C       1.8474499554     0.4771463105    -0.0728431411
    4      C       0.7402532124     1.3230038189    -0.1523931170
    5      C      -0.5746551094     0.8999965562     0.0097441366
    6      C      -1.6224951690     1.9252654573    -0.0079617275
    7      C      -2.6659110459     1.9671032265     0.8080042131
    8      C      -0.8008258324    -0.4671090944     0.2027841235
    9      S      -2.4245223037    -1.1972552251     0.3048070545
   10      C      -3.0807393369    -0.7259906498    -1.3252125455
   11      C       0.2748178108    -1.3364642528     0.2946833779
   12      C       1.5673993625    -0.8694477262     0.1746200805
   13      F       2.5575596969    -1.7791684629     0.2841786172
   14      H       5.2605227449     0.9616255002    -0.3893520914
   15      H       4.4393400257    -0.6446478411    -0.1141214636
   16      H       3.1644692212     2.1254814166    -0.3922257243
   17      H       0.9158298565     2.3760873712    -0.3241909784
   18      H      -1.4532298965     2.7335891111    -0.7100904379
   19      H      -2.8473501712     1.2026799026     1.5438689922
   20      H      -3.3763117231     2.7754985399     0.7688183487
   21      H      -4.0613858569    -1.1838283320    -1.4001135531
   22      H      -2.4246853703    -1.1155577352    -2.0977272704
   23      H      -3.1622341062     0.3543883096    -1.3928670947
   24      H       0.1047917417    -2.3893718815     0.4562675938
 ----------------------------------------------------------------

    9    -923.7703560076      3.26e-06  Convergence criterion met
 Total energy in the final basis set =     -923.7703560076

                    Orbital Energies (a.u.)
 --------------------------------------------------------------

 Alpha MOs
 -- Occupied --
-88.8739 -24.7127 -10.2761 -10.2245 -10.2088 -10.2061 -10.2055 -10.2003
-10.1980 -10.1966 -10.1952 -10.1823 -10.1815  -7.9351  -5.9004  -5.8966
 -5.8895  -1.2242  -0.8846  -0.8209  -0.7951  -0.7773  -0.7412  -0.7259
 -0.6619  -0.6299  -0.6070  -0.5948  -0.5601  -0.5225  -0.4982  -0.4942
 -0.4672  -0.4593  -0.4464  -0.4420  -0.4332  -0.4295  -0.4152  -0.4040
 -0.3932  -0.3851  -0.3674  -0.3561  -0.3450  -0.3248  -0.3102  -0.2855
 -0.2438  -0.2384  -0.2101

          Ground-State Mulliken Net Atomic Charges

     Atom                 Charge (a.u.)
  ----------------------------------------
      1 C                    -0.357100
      2 C                    -0.109501
      3 C                     0.126713
      4 C                    -0.269499
      5 C                     0.163520
      6 C                    -0.162398
      7 C                    -0.318759
      8 C                    -0.143218
      9 S                     0.087899
     10 C                    -0.584617
     11 C                    -0.222090
     12 C                     0.327024
     13 F                    -0.288241
     14 H                     0.141994
     15 H                     0.163393
     16 H                     0.130831
     17 H                     0.136539
     18 H                     0.135030
     19 H                     0.176846
     20 H                     0.142923
     21 H                     0.182130
     22 H                     0.185183
     23 H                     0.192252
     24 H                     0.163147
  ----------------------------------------
  Sum of atomic charges =     0.000000

                    Cartesian Multipole Moments
 -----------------------------------------------------------------
    Charge (ESU x 10^10)
                 0.0000
    Dipole Moment (Debye)
         X      -0.4618      Y       1.6686      Z      -1.2958
       Tot       2.1625
    Quadrupole Moments (Debye-Ang)
        XX     -78.3660     XY       0.0615     YY     -79.8032
        XZ       2.3432     YZ      -0.4157     ZZ     -83.6515

 Total job time:  36.10s(wall), 35.98s(cpu)
        *  Thank you very much for using Q-Chem.  Have a nice day.  *
