 Q-Chem 5.2, Q-Chem, Inc., Pleasanton, CA (2019)
 Q-Chem 5.2.1 for Intel X86 EM64T Linux

User input:
--------------------------------------------------------------
$molecule
0 1
C        -3.35742431930000   -2.98666722490000    0.34257695810000
C        -3.37188767990000   -1.67592170200000    0.12478862690000
C        -2.16837312370000   -0.88797358670000    0.06455036040000
N        -0.94212536470000   -1.30539205150000    0.19472270570000
C        -0.15277495940000   -0.20570553810000    0.05037326480000
C         1.31059034350000   -0.37883831250000    0.15447549990000
O         1.84297980370000   -1.17899073020000    0.87604247120000
O         1.97514477130000    0.43538881300000   -0.67952129370000
C         3.40001571870000    0.31684368330000   -0.68449623210000
C         4.03759933070000    1.09950528840000    0.45500693900000
C        -0.96830183200000    0.89860066400000   -0.16237679790000
C        -0.80544556940000    2.31961021340000   -0.32137302940000
C         0.33566199590000    3.00005503480000   -0.29403477850000
O        -2.24535430820000    0.44199317800000   -0.14860502780000
H        -4.26506874660000   -3.56218558650000    0.38610325640000
H        -2.42445248030000   -3.50379943560000    0.48283403010000
H        -4.28830628330000   -1.12111607090000   -0.01853306120000
H         3.71040652400000    0.70755909900000   -1.65570863440000
H         3.66440567680000   -0.74251211990000   -0.60448974940000
H         3.77388303470000    2.15292609850000    0.39191250490000
H         5.11811161510000    1.00346159040000    0.39884007850000
H         3.69932182810000    0.70486742400000    1.40996015930000
H        -1.74775046230000    2.83524567010000   -0.45794113540000
H         1.28454012850000    2.51509254170000   -0.16544429660000
H         0.34078040580000    4.06968976070000   -0.41057938690000
$end

$rem
BASIS = 6-31G*
GUI = 2
METHOD = B3LYP
PRINT_ORBITALS false
MOLDEN_FORMAT false
--------------------------------------------------------------

             Standard Nuclear Orientation (Angstroms)
    I     Atom           X                Y                Z
 ----------------------------------------------------------------
    1      C       4.3059031953    -1.4859905331     0.0357224460
    2      C       3.8084603190    -0.2538415688     0.0430903769
    3      C       2.3933289972     0.0097476219     0.0137263039
    4      N       1.4266115424    -0.8618266428    -0.0123935032
    5      C       0.2710484967    -0.1422206451    -0.0202996118
    6      C      -1.0091589771    -0.8786292040    -0.0522605460
    7      O      -1.1686980919    -1.9246128650    -0.6221787635
    8      O      -1.9632191305    -0.2622952890     0.6619178491
    9      C      -3.2325574626    -0.9170996329     0.7278449633
   10      C      -4.0829785277    -0.6293903460    -0.5016048753
   11      C       0.5921917114     1.2092893627    -0.0090483180
   12      C      -0.1092262034     2.4643336491    -0.0718722899
   13      C      -1.4225288155     2.6403516888    -0.1725346415
   14      O       1.9463440055     1.2826863221     0.0116286161
   15      H       5.3658858693    -1.6674494528     0.0567871290
   16      H       3.6484247210    -2.3371158538     0.0067057910
   17      H       4.4360922511     0.6256726114     0.0696688642
   18      H      -3.7018066418    -0.5283011341     1.6338777738
   19      H      -3.0669234557    -1.9949810262     0.8241511556
   20      H      -4.2463835914     0.4401742305    -0.6136450347
   21      H      -5.0449543934    -1.1232987805    -0.3989267519
   22      H      -3.5870412210    -1.0084804616    -1.3917976847
   23      H       0.5575631291     3.3171052430    -0.0465369856
   24      H      -2.1074334551     1.8142097876    -0.1946488011
   25      H      -1.8420146738     3.6297236348    -0.2264053936
 ----------------------------------------------------------------

    9    -668.0681822953      8.35e-06  Convergence criterion met
 Total energy in the final basis set =     -668.0681822953

                    Orbital Energies (a.u.)
 --------------------------------------------------------------

 Alpha MOs
 -- Occupied --
-19.2376 -19.1945 -19.1349 -14.3316 -10.3185 -10.2804 -10.2656 -10.2451
-10.2298 -10.2084 -10.2074 -10.1954 -10.1926 -10.1833  -1.1525  -1.1111
 -1.0204  -0.9336  -0.8350  -0.7952  -0.7800  -0.7383  -0.6940  -0.6451
 -0.6381  -0.6018  -0.5689  -0.5578  -0.5358  -0.4949  -0.4933  -0.4853
 -0.4741  -0.4586  -0.4504  -0.4412  -0.4291  -0.4208  -0.4109  -0.3884
 -0.3791  -0.3786  -0.3735  -0.3462  -0.3407  -0.3214  -0.3022  -0.2903
 -0.2887  -0.2746  -0.2159

          Ground-State Mulliken Net Atomic Charges

     Atom                 Charge (a.u.)
  ----------------------------------------
      1 C                    -0.326887
      2 C                    -0.115741
      3 C                     0.509546
      4 N                    -0.486612
      5 C                     0.140115
      6 C                     0.556472
      7 O                    -0.459574
      8 O                    -0.455083
      9 C                    -0.047153
     10 C                    -0.470874
     11 C                     0.320200
     12 C                    -0.129351
     13 C                    -0.344398
     14 O                    -0.475902
     15 H                     0.154225
     16 H                     0.184710
     17 H                     0.149783
     18 H                     0.154242
     19 H                     0.173749
     20 H                     0.155893
     21 H                     0.154959
     22 H                     0.183267
     23 H                     0.150566
     24 H                     0.174458
     25 H                     0.149389
  ----------------------------------------
  Sum of atomic charges =     0.000000

                    Cartesian Multipole Moments
 -----------------------------------------------------------------
    Charge (ESU x 10^10)
                -0.0000
    Dipole Moment (Debye)
         X      -0.4787      Y       2.4831      Z       0.8278
       Tot       2.6609
    Quadrupole Moments (Debye-Ang)
        XX     -61.5444     XY      -0.7760     YY     -81.0395
        XZ      -1.4181     YZ      -3.1731     ZZ     -82.8379

 Total job time:  34.94s(wall), 34.82s(cpu)
        *  Thank you very much for using Q-Chem.  Have a nice day.  *
