 Q-Chem 5.2, Q-Chem, Inc., Pleasanton, CA (2019)
 Q-Chem 5.2.1 for Intel X86 EM64T Linux

User input:
--------------------------------------------------------------
$molecule
0 1
C         3.51986578600000    1.06565807380000   -0.05196188030000
C         2.89447749020000   -0.10274646440000    0.02178099540000
C         1.45307767710000   -0.31650575730000    0.01261052350000
C         0.95512180580000   -1.62125010180000    0.04878672010000
N        -0.33287867130000   -1.91041380580000    0.03692057420000
C        -1.18499571600000   -0.91845507280000   -0.00818328670000
F        -2.47921914890000   -1.27475650890000   -0.01506058560000
C        -0.84914783440000    0.44245596310000   -0.04277990500000
C        -1.89263354400000    1.45867940350000   -0.09037725400000
C        -1.71818831530000    2.75704874160000    0.12110899420000
C         0.51537587930000    0.71608541540000   -0.03556498440000
H         4.59429784800000    1.12458005520000   -0.03929753950000
H         2.99924008510000    2.00464688740000   -0.13075358240000
H         3.47828446870000   -1.01172184440000    0.09455349520000
H         1.61980526120000   -2.47384099640000    0.08442796200000
H        -2.88380398400000    1.07904755070000   -0.29963459080000
H        -0.75971406710000    3.18592382680000    0.35967474880000
H        -2.54402374420000    3.44498825290000    0.07269004650000
H         0.84551978160000    1.74151866760000   -0.07794099360000
$end

$rem
BASIS = 6-31G*
GUI = 2
METHOD = B3LYP
PRINT_ORBITALS false
MOLDEN_FORMAT false
--------------------------------------------------------------

             Standard Nuclear Orientation (Angstroms)
    I     Atom           X                Y                Z
 ----------------------------------------------------------------
    1      C       3.4094649813    -1.1529577855     0.0544761766
    2      C       2.8368221461     0.0421044027    -0.0205188016
    3      C       1.4063858017     0.3199351591    -0.0120047395
    4      C       0.9671178312     1.6455532149    -0.0495146289
    5      N      -0.3067100357     1.9918753222    -0.0383233060
    6      C      -1.2022264243     1.0389430653     0.0073981938
    7      F      -2.4792757846     1.4526090361     0.0135382912
    8      C      -0.9274093702    -0.3355584059     0.0433268126
    9      C      -2.0151867865    -1.3041953136     0.0915019943
   10      C      -1.8987536074    -2.6092445716    -0.1187603610
   11      C       0.4235570158    -0.6697698481     0.0367973857
   12      H       4.4802042639    -1.2597444482     0.0422108281
   13      H       2.8474627657    -2.0677241608     0.1339446163
   14      H       3.4606027054     0.9240752871    -0.0939207046
   15      H       1.6691696068     2.4676231223    -0.0857085399
   16      H      -2.9885012509    -0.8805513507     0.3000986482
   17      H      -0.9602904543    -3.0806515040    -0.3566316641
   18      H      -2.7544583567    -3.2596290963    -0.0699887161
   19      H       0.7076335050    -1.7088659346     0.0802018608
 ----------------------------------------------------------------

    9    -502.3234056693      3.36e-06  Convergence criterion met
 Total energy in the final basis set =     -502.3234056693

                    Orbital Energies (a.u.)
 --------------------------------------------------------------

 Alpha MOs
 -- Occupied --
-24.7117 -14.3388 -10.3048 -10.2322 -10.2179 -10.2154 -10.2105 -10.2026
-10.2025 -10.1926 -10.1911  -1.2285  -0.9644  -0.8443  -0.8192  -0.7589
 -0.7452  -0.6681  -0.6525  -0.5891  -0.5690  -0.5565  -0.5310  -0.4937
 -0.4778  -0.4711  -0.4522  -0.4318  -0.4231  -0.4189  -0.3983  -0.3880
 -0.3781  -0.3571  -0.3303  -0.3221  -0.2759  -0.2553  -0.2306

          Ground-State Mulliken Net Atomic Charges

     Atom                 Charge (a.u.)
  ----------------------------------------
      1 C                    -0.350608
      2 C                    -0.116720
      3 C                     0.153363
      4 C                    -0.025756
      5 N                    -0.446375
      6 C                     0.450645
      7 F                    -0.263202
      8 C                     0.083407
      9 C                    -0.114089
     10 C                    -0.343947
     11 C                    -0.202908
     12 H                     0.150884
     13 H                     0.143795
     14 H                     0.135389
     15 H                     0.150938
     16 H                     0.152341
     17 H                     0.144400
     18 H                     0.153541
     19 H                     0.144903
  ----------------------------------------
  Sum of atomic charges =     0.000000

                    Cartesian Multipole Moments
 -----------------------------------------------------------------
    Charge (ESU x 10^10)
                 0.0000
    Dipole Moment (Debye)
         X       1.6433      Y      -2.4402      Z       0.0509
       Tot       2.9424
    Quadrupole Moments (Debye-Ang)
        XX     -57.9433     XY       4.6951     YY     -62.4451
        XZ      -0.5783     YZ       0.1392     ZZ     -65.5337

 Total job time:  21.10s(wall), 20.98s(cpu)
        *  Thank you very much for using Q-Chem.  Have a nice day.  *
