 Q-Chem 5.2, Q-Chem, Inc., Pleasanton, CA (2019)
 Q-Chem 5.2.1 for Intel X86 EM64T Linux

User input:
--------------------------------------------------------------
$molecule
0 1
C         4.73252805740000   -0.40216362800000   -0.01656352020000
C         3.68840397360000    0.41872125460000   -0.00276158500000
C         2.28701001320000    0.03079532610000    0.00388345660000
C         1.83765398450000   -1.29262283990000    0.02807016720000
C         0.48328498930000   -1.55267446260000    0.03196094240000
C        -0.41534436740000   -0.48055507520000    0.01182924520000
C        -1.84677033680000   -0.73127894740000    0.01577486330000
C        -2.79112382770000    0.20029381940000   -0.00389224670000
F        -2.63909515030000    1.50733255090000   -0.03056756880000
F        -4.09093738770000   -0.08966064430000    0.00098286810000
N         0.00585802180000    0.78300566970000   -0.01053505900000
C         1.29639010760000    1.02132425020000   -0.01388345150000
H         5.74006073250000   -0.02394033660000   -0.02166996500000
H         4.63273680300000   -1.47413476890000   -0.02463291410000
H         3.85625659640000    1.48865430070000    0.00178114180000
H         2.54176331950000   -2.11075239680000    0.04533358140000
H         0.11655640370000   -2.56772530260000    0.05085950270000
H        -2.17497118930000   -1.75881060530000    0.03628006500000
H         1.57037849650000    2.06906244780000   -0.03238008800000
$end

$rem
BASIS = 6-31G*
GUI = 2
METHOD = B3LYP
PRINT_ORBITALS false
MOLDEN_FORMAT false
--------------------------------------------------------------

             Standard Nuclear Orientation (Angstroms)
    I     Atom           X                Y                Z
 ----------------------------------------------------------------
    1      C       4.6145970030    -0.0519059933    -0.0195496700
    2      C       3.5166001548     0.6950166491     0.0077829829
    3      C       2.1451374834     0.2117735289     0.0063892922
    4      C       1.7876792060    -1.1395831200     0.0069061270
    5      C       0.4543533005    -1.4919975614     0.0050484450
    6      C      -0.5157464466    -0.4838893025     0.0029976215
    7      C      -1.9265877913    -0.8322886779     0.0012920377
    8      C      -2.9326575887     0.0324800199    -0.0028058748
    9      F      -2.8707022307     1.3471371851    -0.0063567516
   10      F      -4.2095040524    -0.3460354067    -0.0041580186
   11      N      -0.1822666158     0.8057961325     0.0032257187
   12      C       1.0888646967     1.1321415896     0.0051881178
   13      H       5.5937935864     0.3946018119    -0.0171296822
   14      H       4.5886106515    -1.1278896241    -0.0465584129
   15      H       3.6106260539     1.7737003244     0.0312887563
   16      H       2.5462846144    -1.9076388900     0.0103877347
   17      H       0.1581617100    -2.5299981564     0.0057732153
   18      H      -2.1834853565    -1.8801229256     0.0034370814
   19      H       1.2902914919     2.1963757322     0.0053597329
 ----------------------------------------------------------------

    9    -601.5539157411      5.79e-06  Convergence criterion met
 Total energy in the final basis set =     -601.5539157411

                    Orbital Energies (a.u.)
 --------------------------------------------------------------

 Alpha MOs
 -- Occupied --
-24.7362 -24.7346 -14.3242 -10.3600 -10.2367 -10.2210 -10.2077 -10.2035
-10.2002 -10.2001 -10.1979 -10.1870  -1.2838  -1.2221  -0.9538  -0.8312
 -0.8109  -0.7791  -0.7358  -0.6625  -0.6383  -0.6222  -0.5732  -0.5713
 -0.5420  -0.5171  -0.5069  -0.4931  -0.4623  -0.4409  -0.4375  -0.4369
 -0.4211  -0.4126  -0.4121  -0.4025  -0.3892  -0.3572  -0.3337  -0.2889
 -0.2717  -0.2523  -0.2174

          Ground-State Mulliken Net Atomic Charges

     Atom                 Charge (a.u.)
  ----------------------------------------
      1 C                    -0.352594
      2 C                    -0.114063
      3 C                     0.147962
      4 C                    -0.150757
      5 C                    -0.177475
      6 C                     0.339134
      7 C                    -0.296024
      8 C                     0.569077
      9 F                    -0.209045
     10 F                    -0.247321
     11 N                    -0.486341
     12 C                    -0.021621
     13 H                     0.148853
     14 H                     0.142408
     15 H                     0.133715
     16 H                     0.139728
     17 H                     0.135655
     18 H                     0.158478
     19 H                     0.140231
  ----------------------------------------
  Sum of atomic charges =     0.000000

                    Cartesian Multipole Moments
 -----------------------------------------------------------------
    Charge (ESU x 10^10)
                 0.0000
    Dipole Moment (Debye)
         X       1.8065      Y      -1.8117      Z       0.0049
       Tot       2.5584
    Quadrupole Moments (Debye-Ang)
        XX     -63.9932     XY       2.4813     YY     -61.3866
        XZ      -0.0169     YZ       0.0535     ZZ     -69.1928

 Total job time:  21.45s(wall), 21.36s(cpu)
        *  Thank you very much for using Q-Chem.  Have a nice day.  *
