 Q-Chem 5.2, Q-Chem, Inc., Pleasanton, CA (2019)
 Q-Chem 5.2.1 for Intel X86 EM64T Linux

User input:
--------------------------------------------------------------
$molecule
0 1
C        -3.36132993500000    2.06792342370000    0.04505944430000
C        -2.88236766380000    0.83105517890000    0.06859394240000
C        -1.47662121800000    0.44008574690000    0.01027019380000
C        -0.42045436280000    1.35066459360000   -0.05456177940000
C         0.88008419860000    0.86874401040000   -0.10725169850000
C         2.04887712510000    1.82043670190000   -0.18453429450000
O         3.26654856140000    1.27111094050000    0.25284402560000
C         1.08144490740000   -0.50298247310000   -0.09443014420000
C        -0.02727126180000   -1.34963440510000   -0.02210838320000
C         0.06861439690000   -2.80616474740000    0.00354435980000
C         1.18228571640000   -3.52474216400000   -0.05561756610000
N        -1.26674593270000   -0.87315001820000    0.03082996740000
H        -4.41998386840000    2.25779442170000    0.09159076900000
H        -2.73119724500000    2.93880568880000   -0.02218523430000
H        -3.55442366570000   -0.01373134030000    0.13381929640000
H        -0.60333292670000    2.41351882390000   -0.06255944490000
H         1.81108777200000    2.73840148300000    0.37463560540000
H         2.21528731510000    2.09913752490000   -1.23098720570000
H         3.16686888480000    0.98396367430000    1.16764434450000
H         2.08410663600000   -0.89615821170000   -0.14636789570000
H        -0.89397192010000   -3.29376737130000    0.07662377540000
H         2.16108206100000   -3.08231340290000   -0.13308008480000
H         1.15434151230000   -4.60069807760000   -0.03130111000000
$end

$rem
BASIS = 6-31G*
GUI = 2
METHOD = B3LYP
PRINT_ORBITALS false
MOLDEN_FORMAT false
--------------------------------------------------------------

             Standard Nuclear Orientation (Angstroms)
    I     Atom           X                Y                Z
 ----------------------------------------------------------------
    1      C       3.9423567158    -0.1128380165     0.0385877532
    2      C       2.9115620213     0.7216175433     0.0693773862
    3      C       1.4975552871     0.3618412704     0.0099819720
    4      C       1.0343052049    -0.9529878958    -0.0639712015
    5      C      -0.3336789828    -1.1815709892    -0.1168224772
    6      C      -0.8741880636    -2.5880030759    -0.2038121483
    7      O      -2.2032791334    -2.7204808232     0.2340792635
    8      C      -1.1907673211    -0.0919515860    -0.0950691027
    9      C      -0.6501208250     1.1935128284    -0.0139267555
   10      C      -1.4578886345     2.4090731995     0.0215261853
   11      C      -2.7815150870     2.4787874414    -0.0356610840
   12      N       0.6621883441     1.3964309636     0.0390465839
   13      H       4.9552139240     0.2487899479     0.0866481500
   14      H       3.8289248999    -1.1812672229    -0.0363604126
   15      H       3.0743411610     1.7882815365     0.1422386013
   16      H       1.7217034035    -1.7839096440    -0.0788174682
   17      H      -0.2106106865    -3.2700794577     0.3496415234
   18      H      -0.8810490773    -2.9048803564    -1.2526076054
   19      H      -2.2586523649    -2.4285101167     1.1511049587
   20      H      -2.2562026163    -0.2493299958    -0.1469815409
   21      H      -0.8653781028     3.3103806591     0.1005544758
   22      H      -3.4105659459     1.6086333048    -0.1188039123
   23      H      -3.2925318267     3.4258368674    -0.0038401305
 ----------------------------------------------------------------

    9    -517.6080519667      2.37e-06  Convergence criterion met
 Total energy in the final basis set =     -517.6080519667

                    Orbital Energies (a.u.)
 --------------------------------------------------------------

 Alpha MOs
 -- Occupied --
-19.1567 -14.3196 -10.2454 -10.2259 -10.2252 -10.2098 -10.1946 -10.1914
-10.1881 -10.1871 -10.1851 -10.1842  -1.0356  -0.9496  -0.8186  -0.8142
 -0.7730  -0.7270  -0.7018  -0.6572  -0.6187  -0.5835  -0.5455  -0.5258
 -0.5112  -0.4891  -0.4667  -0.4560  -0.4528  -0.4351  -0.4236  -0.4117
 -0.4073  -0.3761  -0.3660  -0.3526  -0.3406  -0.3228  -0.2972  -0.2779
 -0.2586  -0.2528  -0.2249

          Ground-State Mulliken Net Atomic Charges

     Atom                 Charge (a.u.)
  ----------------------------------------
      1 C                    -0.347414
      2 C                    -0.090875
      3 C                     0.309847
      4 C                    -0.229230
      5 C                     0.127888
      6 C                    -0.085503
      7 O                    -0.605228
      8 C                    -0.233113
      9 C                     0.315300
     10 C                    -0.092198
     11 C                    -0.347325
     12 N                    -0.574564
     13 H                     0.149595
     14 H                     0.141727
     15 H                     0.145040
     16 H                     0.127605
     17 H                     0.136386
     18 H                     0.173664
     19 H                     0.393949
     20 H                     0.145126
     21 H                     0.144270
     22 H                     0.145795
     23 H                     0.149259
  ----------------------------------------
  Sum of atomic charges =     0.000000

                    Cartesian Multipole Moments
 -----------------------------------------------------------------
    Charge (ESU x 10^10)
                 0.0000
    Dipole Moment (Debye)
         X       0.2709      Y      -1.2357      Z       0.8125
       Tot       1.5035
    Quadrupole Moments (Debye-Ang)
        XX     -66.1028     XY      -6.3515     YY     -69.5541
        XZ      -2.4124     YZ      -1.6441     ZZ     -70.7849

 Total job time:  27.51s(wall), 27.42s(cpu)
        *  Thank you very much for using Q-Chem.  Have a nice day.  *
