 Q-Chem 5.2, Q-Chem, Inc., Pleasanton, CA (2019)
 Q-Chem 5.2.1 for Intel X86 EM64T Linux

User input:
--------------------------------------------------------------
$molecule
0 1
C        -2.34564354870000    2.58184869840000   -5.06067349920000
C        -2.62478410640000    3.10171276610000   -3.87195283290000
C        -1.94605537990000    2.81480528510000   -2.61253346050000
C        -2.31459679710000    3.53000568370000   -1.47300655740000
C        -1.69871128200000    3.31173248210000   -0.24600204590000
C        -2.12400403660000    4.10419988710000    0.90301844770000
C        -1.54081208610000    4.16070193140000    2.09405500950000
C        -0.69846609490000    2.34171751180000   -0.15297401940000
C        -0.32553309720000    1.61529151370000   -1.27447191570000
O         0.63197156380000    0.64627575610000   -1.29036903080000
C         1.30687136400000    0.32749898060000   -0.09297470420000
C         2.31477302330000   -0.77651718060000   -0.40306041000000
C         1.65852266320000   -2.06965841810000   -0.89061376960000
C         0.82902380070000   -2.81391331760000    0.15676622100000
C         1.66222818880000   -3.33632398280000    1.32615946590000
C         0.82659338610000   -4.23438945050000    2.24838459480000
C         1.66559717760000   -4.70018763390000    3.42185139070000
O         2.12049823460000   -5.79965636270000    3.53299948330000
O         1.90277282570000   -3.75798904720000    4.35564798830000
C        -0.94790129960000    1.85528733830000   -2.49784513010000
H        -2.90435605520000    2.86016665870000   -5.93785795300000
H        -1.55572714170000    1.86694197540000   -5.21305095960000
H        -3.42886201730000    3.82344125180000   -3.79208567440000
H        -3.09106175480000    4.27836746610000   -1.54777824740000
H        -3.00425634930000    4.71008979080000    0.72546841410000
H        -0.65346668750000    3.60225208590000    2.33916277620000
H        -1.93192429290000    4.78471830780000    2.87922884850000
H        -0.22866983560000    2.16166360710000    0.79951629280000
H         0.58933327080000   -0.00350895230000    0.67032329340000
H         1.83728757320000    1.21115666460000    0.29062372860000
H         2.92028597230000   -0.95902437400000    0.48512153470000
H         2.97558379270000   -0.41011497710000   -1.19027691950000
H         2.44183508110000   -2.73775850610000   -1.25450763310000
H         1.01293181510000   -1.81998270480000   -1.73383464660000
H         0.34891145210000   -3.66281954250000   -0.33472242480000
H         0.03398628120000   -2.16730591630000    0.53311718830000
H         2.06766167720000   -2.49666416440000    1.89638208600000
H         2.50493385090000   -3.91444151660000    0.94210461840000
H         0.48867626970000   -5.11257434040000    1.69811992240000
H        -0.04944021650000   -3.68858745650000    2.61014484970000
H         1.47171068180000   -2.91875272270000    4.14784434910000
H        -0.63193896440000    1.26827121690000   -3.34416051420000
$end

$rem
BASIS = 6-31G*
GUI = 2
METHOD = B3LYP
PRINT_ORBITALS false
MOLDEN_FORMAT false
--------------------------------------------------------------

             Standard Nuclear Orientation (Angstroms)
    I     Atom           X                Y                Z
 ----------------------------------------------------------------
    1      C       5.4056895434    -2.7857999816    -0.8146986568
    2      C       5.3345822844    -1.4631714344    -0.8973570271
    3      C       4.2277502301    -0.6193914932    -0.4590831894
    4      C       4.3677762626     0.7662796301    -0.5375955925
    5      C       3.3547910096     1.6245667611    -0.1256461932
    6      C       3.5724089372     3.0641054346    -0.2231010798
    7      C       2.8038911708     4.0236467718     0.2774329237
    8      C       2.1644317026     1.0823722562     0.3633768428
    9      C       2.0050856269    -0.2935706580     0.4403262275
   10      O       0.8856951287    -0.9225321196     0.8957730686
   11      C      -0.2139706302    -0.1467265468     1.3197099484
   12      C      -1.3134393779    -1.1026654850     1.7760210300
   13      C      -1.8259210260    -2.0082721381     0.6544925088
   14      C      -2.5983487673    -1.2953527263    -0.4564034628
   15      C      -3.9044362269    -0.6656383413     0.0254869375
   16      C      -4.7327510439    -0.1314601244    -1.1508865119
   17      C      -5.9989924671     0.5269038733    -0.6398981208
   18      O      -7.0870790614     0.0363983526    -0.6998335293
   19      O      -5.8164483846     1.7321539601    -0.0654275500
   20      C       3.0357286403    -1.1375384642     0.0315775053
   21      H       6.2711726466    -3.3221900895    -1.1644096349
   22      H       4.6165497980    -3.3867893988    -0.3971479104
   23      H       6.1702052635    -0.9196077661    -1.3217210597
   24      H       5.2894674030     1.1828088794    -0.9190701260
   25      H       4.4740092149     3.3437162663    -0.7545194139
   26      H       1.9032648532     3.8234344453     0.8325123450
   27      H       3.0559357440     5.0630390030     0.1549564911
   28      H       1.3730362870     1.7451950374     0.6711510873
   29      H      -0.5682676585     0.4901993232     0.4976089498
   30      H       0.0795533563     0.5015906119     2.1580825065
   31      H      -2.1278858090    -0.5207086748     2.2082539023
   32      H      -0.8977481048    -1.7341072492     2.5628585892
   33      H      -2.4719985266    -2.7704472905     1.0949782814
   34      H      -0.9656767053    -2.5131024183     0.2125954062
   35      H      -2.8312948188    -2.0302841070    -1.2299167063
   36      H      -1.9705831858    -0.5302054668    -0.9171483871
   37      H      -3.6883810721     0.1465974083     0.7241657033
   38      H      -4.4935892333    -1.4142421622     0.5587428762
   39      H      -5.0148865235    -0.9559617046    -1.8057029774
   40      H      -4.1448503127     0.5886896698    -1.7270481001
   41      H      -4.8928289611     2.0143345273    -0.0902432843
   42      H       2.8717996722    -2.1998443919     0.1044010098
 ----------------------------------------------------------------

    9    -886.6926264020      2.39e-06  Convergence criterion met
 Total energy in the final basis set =     -886.6926264020

                    Orbital Energies (a.u.)
 --------------------------------------------------------------

 Alpha MOs
 -- Occupied --
-19.1954 -19.1820 -19.1297 -10.3148 -10.2506 -10.2486 -10.2067 -10.2043
-10.1996 -10.1984 -10.1940 -10.1938 -10.1928 -10.1918 -10.1882 -10.1868
-10.1844 -10.1841 -10.1839 -10.1816  -1.1038  -1.0738  -1.0204  -0.8694
 -0.8311  -0.8083  -0.8007  -0.7744  -0.7473  -0.7273  -0.7221  -0.6781
 -0.6467  -0.6316  -0.6198  -0.6042  -0.5920  -0.5709  -0.5410  -0.5338
 -0.5170  -0.5059  -0.4978  -0.4927  -0.4851  -0.4686  -0.4587  -0.4545
 -0.4465  -0.4363  -0.4313  -0.4297  -0.4194  -0.4076  -0.4002  -0.3914
 -0.3847  -0.3799  -0.3761  -0.3695  -0.3652  -0.3603  -0.3513  -0.3466
 -0.3424  -0.3367  -0.3268  -0.3226  -0.3195  -0.3142  -0.2655  -0.2646
 -0.2236  -0.2193

          Ground-State Mulliken Net Atomic Charges

     Atom                 Charge (a.u.)
  ----------------------------------------
      1 C                    -0.350710
      2 C                    -0.113557
      3 C                     0.191119
      4 C                    -0.285538
      5 C                     0.183490
      6 C                    -0.110305
      7 C                    -0.355334
      8 C                    -0.264447
      9 C                     0.397672
     10 O                    -0.522587
     11 C                    -0.034311
     12 C                    -0.286688
     13 C                    -0.263995
     14 C                    -0.263461
     15 C                    -0.272806
     16 C                    -0.373949
     17 C                     0.586748
     18 O                    -0.433088
     19 O                    -0.560308
     20 C                    -0.248984
     21 H                     0.145033
     22 H                     0.145046
     23 H                     0.127509
     24 H                     0.124026
     25 H                     0.129229
     26 H                     0.138599
     27 H                     0.145494
     28 H                     0.128001
     29 H                     0.131980
     30 H                     0.140123
     31 H                     0.139947
     32 H                     0.154829
     33 H                     0.136117
     34 H                     0.159109
     35 H                     0.143058
     36 H                     0.136357
     37 H                     0.127161
     38 H                     0.162908
     39 H                     0.178482
     40 H                     0.145741
     41 H                     0.409386
     42 H                     0.132905
  ----------------------------------------
  Sum of atomic charges =     0.000000

                    Cartesian Multipole Moments
 -----------------------------------------------------------------
    Charge (ESU x 10^10)
                 0.0000
    Dipole Moment (Debye)
         X       3.7275      Y       0.7488      Z       0.0693
       Tot       3.8026
    Quadrupole Moments (Debye-Ang)
        XX    -165.7251     XY       1.5251     YY    -112.0836
        XZ      -5.5193     YZ      -0.3979     ZZ    -119.8870

 Total job time:  74.71s(wall), 74.49s(cpu)
        *  Thank you very much for using Q-Chem.  Have a nice day.  *
