 Q-Chem 5.2, Q-Chem, Inc., Pleasanton, CA (2019)
 Q-Chem 5.2.1 for Intel X86 EM64T Linux

User input:
--------------------------------------------------------------
$molecule
0 1
C         2.56833952700000   -2.54156567530000   -0.85999591350000
C         2.31455165040000   -1.33608497400000   -1.34940323090000
C         1.32463466740000   -0.40930384890000   -0.79825614840000
C         0.11434502660000   -0.91556398610000   -0.32622623430000
C        -0.88675900700000   -0.11238480230000    0.18934547370000
C        -2.18285298660000   -0.73430439990000    0.62472878120000
C        -3.29353337880000   -0.47062573340000   -0.39788792120000
C        -4.62131330910000   -1.08848983620000    0.03146888000000
C        -5.72630155770000   -0.81256341590000   -0.98566811590000
C        -7.04845820270000   -1.50271342940000   -0.64849634070000
C        -7.71325841820000   -0.94813239170000    0.60613325240000
C        -0.68380912630000    1.27509641210000    0.22162224460000
C        -1.70239237730000    2.18626236210000    0.74026325020000
C        -1.91908023700000    3.41459656280000    0.28934287950000
C         0.52766384140000    1.77925350280000   -0.24154802390000
C         1.53622963330000    0.97402804930000   -0.74622479200000
C         2.83546520180000    1.62461843700000   -1.13295252670000
C         3.67942892460000    1.95553049340000    0.10749477450000
C         4.14322803300000    0.72333150080000    0.88505924440000
C         5.28087016790000   -0.02452219590000    0.19261190650000
C         5.63208410340000   -1.34625507940000    0.87501426710000
C         6.20774137290000   -1.16990683610000    2.27518378230000
H         3.29344384710000   -3.19678159280000   -1.31217483870000
H         2.07383149600000   -2.91433107590000    0.02205178680000
H         2.85543984870000   -0.99562527050000   -2.22317395510000
H        -0.05246122420000   -1.98196125120000   -0.38552189350000
H        -2.48878625080000   -0.33946187520000    1.59664448350000
H        -2.04867082750000   -1.81276204890000    0.73411850200000
H        -2.99122580290000   -0.88374828560000   -1.36334335410000
H        -3.41670358580000    0.60729889510000   -0.52508388830000
H        -4.90429404740000   -0.68009114270000    1.00331309710000
H        -4.49867062110000   -2.16850055730000    0.14629942910000
H        -5.39162066950000   -1.15864033030000   -1.96698481800000
H        -5.89018880900000    0.26543501200000   -1.05604183310000
H        -6.87379749070000   -2.57388364750000   -0.52309040250000
H        -7.73083151270000   -1.37685294670000   -1.49268760710000
H        -7.10865892060000   -1.14312882730000    1.48792751180000
H        -8.68588880830000   -1.41212141340000    0.75437012490000
H        -7.85663244390000    0.12664608110000    0.51652180660000
H        -2.31535094320000    1.80584549370000    1.54721379360000
H        -1.36243767830000    3.82872866070000   -0.53481388750000
H        -2.67827916510000    4.04838579220000    0.71559864910000
H         0.69700552810000    2.84536157320000   -0.18697489660000
H         2.62131634990000    2.55923462250000   -1.65828698800000
H         3.41089108690000    0.99041345990000   -1.80465131230000
H         3.08038640400000    2.58445343280000    0.77034027150000
H         4.55280788570000    2.53486874370000   -0.20211667900000
H         3.29709146210000    0.04796394070000    1.02685029490000
H         4.47894034740000    1.04762495520000    1.87175891970000
H         6.16725830590000    0.61443712200000    0.16198679200000
H         4.99388054100000   -0.24303485100000   -0.83706394890000
H         6.36444540120000   -1.87233220130000    0.25726326740000
H         4.73479514140000   -1.96745433270000    0.92426152020000
H         7.07388082710000   -0.51167410620000    2.25058376250000
H         6.51974591190000   -2.13073117810000    2.67883884560000
H         5.46961756390000   -0.74392999150000    2.94947296800000
$end

$rem
BASIS = 6-31G*
GUI = 2
METHOD = B3LYP
PRINT_ORBITALS false
MOLDEN_FORMAT false
--------------------------------------------------------------

             Standard Nuclear Orientation (Angstroms)
    I     Atom           X                Y                Z
 ----------------------------------------------------------------
    1      C       2.4287914934     2.6466382708     0.9469045972
    2      C       2.1977216889     1.4431269812     1.4521558725
    3      C       1.2764407344     0.4640238905     0.8731735460
    4      C       0.0737325520     0.9090746256     0.3260579714
    5      C      -0.8655505094     0.0537819264    -0.2210635900
    6      C      -2.1604516395     0.6116548743    -0.7389545548
    7      C      -3.3125924260     0.3256420289     0.2304011864
    8      C      -4.6392679128     0.8782933062    -0.2830299911
    9      C      -5.7849473117     0.5801568327     0.6814571502
   10      C      -7.1138146850     1.2073373938     0.2585551653
   11      C      -7.6881155085     0.5974753968    -1.0149682065
   12      C      -0.6058252672    -1.3245185427    -0.2082113587
   13      C      -1.5580651487    -2.2884690781    -0.7566293505
   14      C      -1.7491528306    -3.5141509264    -0.2872923475
   15      C       0.5984514480    -1.7676207496     0.3300690967
   16      C       1.5456782200    -0.9102233569     0.8666534622
   17      C       2.8474529103    -1.4977095831     1.3368468750
   18      C       3.7688606335    -1.8215752409     0.1508426993
   19      C       4.2237568366    -0.5892477706    -0.6317612398
   20      C       5.2920655262     0.2204275890     0.1004548830
   21      C       5.6259753915     1.5397032917    -0.5952590292
   22      C       6.2819980096     1.3555354588    -1.9585899502
   23      H       3.1019843826     3.3413054200     1.4199784179
   24      H       1.9674575690     2.9785738367     0.0312135071
   25      H       2.7044812659     1.1451871959     2.3612074368
   26      H      -0.1385235928     1.9687516589     0.3500442498
   27      H      -2.3981338254     0.1825758764    -1.7154351260
   28      H      -2.0638843876     1.6919709090    -0.8679270110
   29      H      -3.0789150249     0.7726846030     1.1997886815
   30      H      -3.3991420822    -0.7532832128     0.3777127558
   31      H      -4.8535100522     0.4366218515    -1.2579019854
   32      H      -4.5539867850     1.9595611120    -0.4180762905
   33      H      -5.5171312850     0.9619237739     1.6700377366
   34      H      -5.9090935866    -0.5018113747     0.7699139334
   35      H      -6.9757140608     2.2816808998     0.1158915806
   36      H      -7.8346083840     1.0726142114     1.0687645192
   37      H      -7.0456854787     0.7971956359    -1.8685024831
   38      H      -8.6692503461     1.0174544044    -1.2253533819
   39      H      -7.7929477718    -0.4799935496    -0.9063129989
   40      H      -2.1418931062    -1.9520741298    -1.6037348525
   41      H      -1.2210835788    -3.8861570003     0.5748822610
   42      H      -2.4586027362    -4.1882337906    -0.7368019744
   43      H       0.8129742494    -2.8267971467     0.3109228604
   44      H       2.6431841139    -2.4282061221     1.8733111246
   45      H       3.3604462584    -0.8252254510     2.0217651750
   46      H       3.2316201775    -2.4895567825    -0.5266036164
   47      H       4.6469824468    -2.3572094449     0.5200051981
   48      H       3.3600351251     0.0472408597    -0.8343449717
   49      H       4.6242599563    -0.9217161946    -1.5911919304
   50      H       6.2004148468    -0.3805545277     0.1932603015
   51      H       4.9421192461     0.4502179776     1.1079652660
   52      H       6.3027550922     2.1094308922     0.0466959570
   53      H       4.7084519958     2.1220727544    -0.7067844199
   54      H       7.1712356395     0.7343291205    -1.8723799476
   55      H       6.5763745628     2.3190094560    -2.3691115212
   56      H       5.5984759267     0.8842765688    -2.6597757717
 ----------------------------------------------------------------

    8    -858.8017354980      5.28e-06  Convergence criterion met
 Total energy in the final basis set =     -858.8017354980

                    Orbital Energies (a.u.)
 --------------------------------------------------------------

 Alpha MOs
 -- Occupied --
-10.1876 -10.1875 -10.1868 -10.1867 -10.1845 -10.1844 -10.1795 -10.1782
-10.1777 -10.1776 -10.1763 -10.1762 -10.1730 -10.1726 -10.1726 -10.1714
-10.1706 -10.1665 -10.1661 -10.1651 -10.1640 -10.1616  -0.8686  -0.8196
 -0.8038  -0.7996  -0.7833  -0.7724  -0.7589  -0.7390  -0.7111  -0.7077
 -0.6830  -0.6521  -0.6341  -0.6336  -0.5970  -0.5837  -0.5748  -0.5720
 -0.5630  -0.5518  -0.5313  -0.4965  -0.4865  -0.4710  -0.4638  -0.4531
 -0.4508  -0.4452  -0.4417  -0.4348  -0.4340  -0.4307  -0.4157  -0.4102
 -0.4048  -0.3975  -0.3948  -0.3923  -0.3845  -0.3746  -0.3670  -0.3632
 -0.3560  -0.3525  -0.3498  -0.3471  -0.3391  -0.3376  -0.3341  -0.3266
 -0.3227  -0.3194  -0.3155  -0.3130  -0.3102  -0.3015  -0.2974  -0.2913
 -0.2624  -0.2327  -0.2108

          Ground-State Mulliken Net Atomic Charges

     Atom                 Charge (a.u.)
  ----------------------------------------
      1 C                    -0.335210
      2 C                    -0.136533
      3 C                     0.107302
      4 C                    -0.264347
      5 C                     0.130682
      6 C                    -0.356298
      7 C                    -0.258785
      8 C                    -0.251447
      9 C                    -0.249396
     10 C                    -0.249081
     11 C                    -0.443808
     12 C                     0.120135
     13 C                    -0.132648
     14 C                    -0.339989
     15 C                    -0.256647
     16 C                     0.120681
     17 C                    -0.347941
     18 C                    -0.253572
     19 C                    -0.262129
     20 C                    -0.245884
     21 C                    -0.254087
     22 C                    -0.444120
     23 H                     0.142998
     24 H                     0.144396
     25 H                     0.138910
     26 H                     0.120903
     27 H                     0.139932
     28 H                     0.138730
     29 H                     0.135888
     30 H                     0.147452
     31 H                     0.130696
     32 H                     0.126238
     33 H                     0.127643
     34 H                     0.128067
     35 H                     0.128872
     36 H                     0.129124
     37 H                     0.146481
     38 H                     0.141839
     39 H                     0.140811
     40 H                     0.133639
     41 H                     0.143975
     42 H                     0.140692
     43 H                     0.121877
     44 H                     0.140287
     45 H                     0.139204
     46 H                     0.134593
     47 H                     0.127591
     48 H                     0.146764
     49 H                     0.130826
     50 H                     0.121979
     51 H                     0.125580
     52 H                     0.123008
     53 H                     0.138988
     54 H                     0.138426
     55 H                     0.139167
     56 H                     0.147545
  ----------------------------------------
  Sum of atomic charges =     0.000000

                    Cartesian Multipole Moments
 -----------------------------------------------------------------
    Charge (ESU x 10^10)
                 0.0000
    Dipole Moment (Debye)
         X      -0.3540      Y       0.0043      Z       0.1073
       Tot       0.3699
    Quadrupole Moments (Debye-Ang)
        XX    -137.6203     XY       0.0580     YY    -133.6753
        XZ       4.2589     YZ      -0.2883     ZZ    -138.9898

 Total job time:  123.64s(wall), 123.30s(cpu)
        *  Thank you very much for using Q-Chem.  Have a nice day.  *
