 Q-Chem 5.2, Q-Chem, Inc., Pleasanton, CA (2019)
 Q-Chem 5.2.1 for Intel X86 EM64T Linux

User input:
--------------------------------------------------------------
$molecule
0 1
C         0.12931162050000   -3.70714298420000    1.18181845110000
C         0.07987948990000   -2.44285967300000    1.59286149160000
C         0.88325280640000   -1.37245049220000    1.07193214580000
C         0.84587892530000   -0.05581012360000    1.45302580740000
C         1.73909909650000    0.77647997110000    0.75340199010000
C         1.79268476440000    2.25902236230000    0.95948024630000
C         1.12246134690000    3.02249811740000   -0.19487889440000
C        -0.28908230300000    2.53101865440000   -0.51518788620000
C        -1.32281310320000    2.86763151410000    0.55879792630000
C        -2.65401207000000    2.15331929360000    0.31066695530000
C        -2.61633227690000    0.69551685740000    0.76756143730000
C        -3.85839209410000   -0.10590340010000    0.37858015140000
C        -4.04697529070000   -0.31263125220000   -1.12660167560000
C        -2.86315678250000   -0.96266441070000   -1.84529432700000
C        -2.51036735080000   -2.34306971100000   -1.30449210420000
C         2.48582430700000    0.07933242220000   -0.17319949520000
C         3.51024554320000    0.58907883530000   -1.04137878930000
C         4.13613545770000   -0.11620304110000   -1.98029124900000
S         2.06049423580000   -1.61051056440000   -0.18301405520000
H        -0.50200357470000   -4.46651502620000    1.60770506700000
H         0.80486903870000   -4.01598020010000    0.40141116420000
H        -0.60745575490000   -2.14744351200000    2.37643224850000
H         0.18721556930000    0.30416747620000    2.22416102400000
H         2.83032718970000    2.59163759640000    1.04390154270000
H         1.29202347770000    2.49984054450000    1.89826463710000
H         1.73416306560000    2.90689541870000   -1.09235856670000
H         1.09343373060000    4.08537928130000    0.05616601190000
H        -0.25393740780000    1.45123913530000   -0.66768612590000
H        -0.60920742420000    2.98173342440000   -1.45813423080000
H        -1.48181621730000    3.94872687470000    0.56662198940000
H        -0.94865388640000    2.58404290730000    1.54345233840000
H        -2.88599962470000    2.20556400100000   -0.75396286990000
H        -3.45297951580000    2.66930858060000    0.84872659160000
H        -2.52598295310000    0.67737858350000    1.85757922500000
H        -1.73206071460000    0.20356036870000    0.36332774900000
H        -4.74526799520000    0.40218092750000    0.76702804590000
H        -3.80490917100000   -1.08219938450000    0.86476768890000
H        -4.25494335750000    0.64876851930000   -1.60113273730000
H        -4.93047104510000   -0.94028268420000   -1.27109080790000
H        -1.98845810160000   -0.31328037790000   -1.78180094390000
H        -3.12028963410000   -1.05279580230000   -2.90399966430000
H        -2.14198699720000   -2.28383433160000   -0.28358747860000
H        -1.73240550680000   -2.79845751730000   -1.91347878460000
H        -3.38307069650000   -2.99280304290000   -1.32065530250000
H         3.76984729880000    1.62796926950000   -0.88475133360000
H         3.89520351740000   -1.15084371100000   -2.16063899680000
H         4.90373592650000    0.31794031690000   -2.59604662170000
$end

$rem
BASIS = 6-31G*
GUI = 2
METHOD = B3LYP
PRINT_ORBITALS false
MOLDEN_FORMAT false
--------------------------------------------------------------

             Standard Nuclear Orientation (Angstroms)
    I     Atom           X                Y                Z
 ----------------------------------------------------------------
    1      C      -0.0769973277     3.7291482014     1.2332712972
    2      C      -0.0710167331     2.4598596256     1.6316215846
    3      C      -0.9122474062     1.4234224075     1.1018284827
    4      C      -0.9202016163     0.1025320981     1.4697368508
    5      C      -1.8432309438    -0.6910175959     0.7638202088
    6      C      -1.9482048534    -2.1727728280     0.9552713091
    7      C      -1.3071736838    -2.9475954462    -0.2080724207
    8      C       0.1200924248    -2.5025233819    -0.5265495802
    9      C       1.1433905322    -2.8857580616     0.5417880415
   10      C       2.4982782831    -2.2159171271     0.2978742839
   11      C       2.5123886256    -0.7623334191     0.7693141843
   12      C       3.7809780399    -0.0009197907     0.3856168506
   13      C       3.9739204631     0.2141498055    -1.1178427097
   14      C       2.8122255137     0.9122831318    -1.8274645794
   15      C       2.5088682029     2.2986841314    -1.2722053332
   16      C      -2.5668336700     0.0410171734    -0.1541818329
   17      C      -3.6100223959    -0.4239335675    -1.0251546524
   18      C      -4.2126020782     0.3121340132    -1.9556489084
   19      S      -2.0827419182     1.7149914372    -0.1481275352
   20      H       0.5812399757     4.4617126469     1.6653096858
   21      H      -0.7427757664     4.0691808027     0.4574422662
   22      H       0.6070070042     2.1327963033     2.4107216891
   23      H      -0.2731105757    -0.2879244371     2.2358228058
   24      H      -2.9966788751    -2.4697808056     1.0386388027
   25      H      -1.4545498681    -2.4403091901     1.8905254476
   26      H      -1.9161005100    -2.8017279604    -1.1030269087
   27      H      -1.3148406030    -4.0133011114     0.0323338388
   28      H       0.1224161241    -1.4207031179    -0.6682330423
   29      H       0.4225528911    -2.9546823359    -1.4746221789
   30      H       1.2645391220    -3.9717703728     0.5385224512
   31      H       0.7811661176    -2.5991456004     1.5300231851
   32      H       2.7263547877    -2.2655736260    -0.7677240175
   33      H       3.2797112349    -2.7648490464     0.8290412874
   34      H       2.4247183775    -0.7519606680     1.8596522550
   35      H       1.6451084445    -0.2357790397     0.3719128376
   36      H       4.6502686685    -0.5435243277     0.7670672851
   37      H       3.7625254642     0.9717338932     0.8815976037
   38      H       4.1473053353    -0.7491284911    -1.6023554292
   39      H       4.8785405332     0.8119829313    -1.2580078264
   40      H       1.9154899608     0.2932351369    -1.7685261181
   41      H       3.0704170949     1.0039714552    -2.8857784842
   42      H       2.1405076611     2.2421342848    -0.2511412824
   43      H       1.7461811984     2.7870308900    -1.8749436166
   44      H       3.4037082568     2.9176772101    -1.2838082494
   45      H      -3.9054761772    -1.4546410326    -0.8782950255
   46      H      -3.9359984678     1.3394838165    -2.1262292419
   47      H      -4.9960249787    -0.0887574239    -2.5740179152
 ----------------------------------------------------------------

    9   -1100.9325017730      1.66e-06  Convergence criterion met
 Total energy in the final basis set =    -1100.9325017730

                    Orbital Energies (a.u.)
 --------------------------------------------------------------

 Alpha MOs
 -- Occupied --
-88.8988 -10.2171 -10.2135 -10.1984 -10.1967 -10.1928 -10.1879 -10.1866
-10.1825 -10.1806 -10.1792 -10.1717 -10.1703 -10.1695 -10.1674 -10.1671
-10.1668 -10.1664 -10.1576  -7.9608  -5.9250  -5.9213  -5.9175  -0.8905
 -0.8179  -0.8084  -0.7971  -0.7778  -0.7670  -0.7412  -0.7194  -0.7056
 -0.6792  -0.6536  -0.6288  -0.6156  -0.5898  -0.5752  -0.5620  -0.5492
 -0.5362  -0.5107  -0.4944  -0.4706  -0.4699  -0.4642  -0.4543  -0.4448
 -0.4386  -0.4286  -0.4254  -0.4152  -0.4064  -0.3947  -0.3921  -0.3861
 -0.3847  -0.3793  -0.3675  -0.3611  -0.3601  -0.3552  -0.3498  -0.3379
 -0.3370  -0.3274  -0.3208  -0.3203  -0.3173  -0.3095  -0.3018  -0.2993
 -0.2947  -0.2684  -0.2450  -0.1969

          Ground-State Mulliken Net Atomic Charges

     Atom                 Charge (a.u.)
  ----------------------------------------
      1 C                    -0.369717
      2 C                    -0.059248
      3 C                    -0.134261
      4 C                    -0.180494
      5 C                     0.149983
      6 C                    -0.348936
      7 C                    -0.257013
      8 C                    -0.270985
      9 C                    -0.256243
     10 C                    -0.257053
     11 C                    -0.275680
     12 C                    -0.258221
     13 C                    -0.253133
     14 C                    -0.258407
     15 C                    -0.450070
     16 C                    -0.200888
     17 C                    -0.054465
     18 C                    -0.376303
     19 S                     0.239194
     20 H                     0.148070
     21 H                     0.157610
     22 H                     0.140500
     23 H                     0.138763
     24 H                     0.147010
     25 H                     0.146113
     26 H                     0.137149
     27 H                     0.130766
     28 H                     0.157796
     29 H                     0.130191
     30 H                     0.126604
     31 H                     0.124515
     32 H                     0.135757
     33 H                     0.125317
     34 H                     0.118969
     35 H                     0.156035
     36 H                     0.123617
     37 H                     0.129037
     38 H                     0.128932
     39 H                     0.124726
     40 H                     0.140215
     41 H                     0.126793
     42 H                     0.159100
     43 H                     0.141496
     44 H                     0.134569
     45 H                     0.139698
     46 H                     0.157144
     47 H                     0.145449
  ----------------------------------------
  Sum of atomic charges =     0.000000

                    Cartesian Multipole Moments
 -----------------------------------------------------------------
    Charge (ESU x 10^10)
                 0.0000
    Dipole Moment (Debye)
         X       0.0820      Y      -0.9331      Z       0.4569
       Tot       1.0422
    Quadrupole Moments (Debye-Ang)
        XX    -127.0803     XY       3.9519     YY    -122.2078
        XZ       4.4152     YZ      -0.4385     ZZ    -124.8585

 Total job time:  116.21s(wall), 115.77s(cpu)
        *  Thank you very much for using Q-Chem.  Have a nice day.  *
