 Q-Chem 5.2, Q-Chem, Inc., Pleasanton, CA (2019)
 Q-Chem 5.2.1 for Intel X86 EM64T Linux

User input:
--------------------------------------------------------------
$molecule
0 1
C         3.77245509810000   -0.39796886800000    0.04710927580000
C         2.59532873340000   -1.00672877530000   -0.02055882370000
C         1.32153743100000   -0.30043317400000   -0.02527200420000
C         0.10758642920000   -1.00424054570000   -0.10171004780000
C        -1.07936277370000   -0.29926311630000   -0.09454128070000
C        -2.38527619330000   -0.93814735990000   -0.21388986840000
C        -2.66959330570000   -2.15374650040000    0.23471411670000
C        -0.94840952560000    1.11267672220000    0.01011465410000
N        -2.02702751350000    1.94746337540000    0.02221005740000
N         0.24078931650000    1.70788556080000    0.04884003820000
N         1.33953896250000    1.02679086160000    0.02524356250000
H         4.69859483850000   -0.94662350520000    0.04972187850000
H         3.82562921280000    0.67536371810000    0.10082953390000
H         2.52644928810000   -2.08617844520000   -0.07498366840000
H         0.10770540690000   -2.08035730760000   -0.19911959430000
H        -3.15004227580000   -0.35221648520000   -0.70831672460000
H        -1.94133416430000   -2.75653204050000    0.75115647650000
H        -3.64801322740000   -2.58620657430000    0.11491134860000
H        -2.91052977850000    1.59681606510000    0.34837152630000
H        -1.81252267850000    2.90815232630000    0.23401393790000
$end

$rem
BASIS = 6-31G*
GUI = 2
METHOD = B3LYP
PRINT_ORBITALS false
MOLDEN_FORMAT false
--------------------------------------------------------------

             Standard Nuclear Orientation (Angstroms)
    I     Atom           X                Y                Z
 ----------------------------------------------------------------
    1      C       3.7883697957     0.3488066800    -0.0464608311
    2      C       2.6134962455     0.9617137177     0.0229018311
    3      C       1.3371885639     0.2599795047     0.0281714251
    4      C       0.1258393961     0.9680569744     0.1064281589
    5      C      -1.0636333768     0.2673411341     0.0997340555
    6      C      -2.3671359896     0.9107849031     0.2209284294
    7      C      -2.6475246706     2.1278150712    -0.2262659171
    8      C      -0.9378375922    -1.1449596344    -0.0063681844
    9      N      -2.0194495008    -1.9758670761    -0.0182139217
   10      N       0.2491844490    -1.7443861059    -0.0467870140
   11      N       1.3503883788    -1.0672524508    -0.0236032742
   12      H       4.7164657082     0.8941438479    -0.0494451183
   13      H       3.8376482188    -0.7246584958    -0.1012362495
   14      H       2.5485351792     2.0413515086     0.0784025690
   15      H       0.1299052777     2.0440744517     0.2048445004
   16      H      -3.1335244884     0.3271320294     0.7155374254
   17      H      -1.9176034629     2.7284738894    -0.7428397357
   18      H      -3.6242749152     2.5636630251    -0.1051235100
   19      H      -2.9020004603    -1.6217523475    -0.3432026220
   20      H      -1.8085885772    -2.9371185843    -0.2311215945
 ----------------------------------------------------------------

    9    -474.4490902803      2.78e-06  Convergence criterion met
 Total energy in the final basis set =     -474.4490902803

                    Orbital Energies (a.u.)
 --------------------------------------------------------------

 Alpha MOs
 -- Occupied --
-14.3545 -14.3489 -14.3458 -10.2615 -10.2153 -10.2137 -10.2083 -10.2058
-10.1986 -10.1832 -10.1712  -1.0235  -0.9342  -0.8410  -0.8184  -0.7655
 -0.7454  -0.6755  -0.6448  -0.5996  -0.5673  -0.5408  -0.5344  -0.4956
 -0.4697  -0.4648  -0.4477  -0.4347  -0.4155  -0.4086  -0.3758  -0.3587
 -0.3537  -0.3297  -0.3123  -0.2873  -0.2557  -0.2141  -0.2080

          Ground-State Mulliken Net Atomic Charges

     Atom                 Charge (a.u.)
  ----------------------------------------
      1 C                    -0.338276
      2 C                    -0.107327
      3 C                     0.326856
      4 C                    -0.238405
      5 C                     0.168616
      6 C                    -0.146428
      7 C                    -0.330643
      8 C                     0.434421
      9 N                    -0.781276
     10 N                    -0.347356
     11 N                    -0.337694
     12 H                     0.137843
     13 H                     0.173778
     14 H                     0.121136
     15 H                     0.141672
     16 H                     0.142193
     17 H                     0.151921
     18 H                     0.152126
     19 H                     0.333174
     20 H                     0.343668
  ----------------------------------------
  Sum of atomic charges =     0.000000

                    Cartesian Multipole Moments
 -----------------------------------------------------------------
    Charge (ESU x 10^10)
                 0.0000
    Dipole Moment (Debye)
         X      -3.5118      Y       2.0213      Z      -0.6944
       Tot       4.1110
    Quadrupole Moments (Debye-Ang)
        XX     -54.8179     XY       6.2980     YY     -60.2780
        XZ       1.7038     YZ       1.2332     ZZ     -66.7351

 Total job time:  23.88s(wall), 22.41s(cpu)
        *  Thank you very much for using Q-Chem.  Have a nice day.  *
