 Q-Chem 5.2, Q-Chem, Inc., Pleasanton, CA (2019)
 Q-Chem 5.2.1 for Intel X86 EM64T Linux

User input:
--------------------------------------------------------------
$molecule
0 1
C         3.80089474260000   -2.54050405920000    0.37141965350000
C         3.70618296310000   -1.29638184980000   -0.08190579900000
C         2.50547479980000   -0.48843521790000   -0.03431815650000
C         1.21258647290000   -0.94458331330000   -0.02920072560000
N         0.33657378260000    0.10198816060000   -0.07117681910000
Si       -1.43473086700000    0.12222034410000   -0.03811918800000
C        -1.88807465330000    1.06073772950000    1.58614489130000
C        -3.34987676660000    0.88047531100000    1.99351459760000
C        -0.96960183480000    0.69430243200000    2.75266452900000
C        -1.95950200520000    1.20755938220000   -1.54505151880000
C        -1.07491814650000    0.99152246190000   -2.77345354990000
C        -3.42814854080000    1.02000011530000   -1.92413189860000
C        -2.17719639160000   -1.64961909650000   -0.12035302740000
C        -1.80365255120000   -2.40122312120000   -1.39935559070000
C        -1.85592550100000   -2.50899000230000    1.10338452570000
C         1.08585689840000    1.24686587280000   -0.10392940810000
C         2.42234338020000    0.94442414230000   -0.07708808500000
C         3.48881877430000    1.92376573570000   -0.05628418700000
C         4.69779903890000    1.74938804230000    0.46371599610000
H         4.71326044100000   -3.10620982250000    0.28915729480000
H         2.97294555160000   -3.03547650910000    0.85064823660000
H         4.56554976290000   -0.82276214260000   -0.53900318940000
H         0.86382257730000   -1.95600761890000   -0.03263486920000
H        -1.74147266650000    2.12975795690000    1.39215711970000
H        -3.56711921750000   -0.16082951320000    2.21610357400000
H        -4.01834710150000    1.20487084260000    1.20041960470000
H        -3.57078894460000    1.46808672860000    2.88340849170000
H        -1.07858883270000   -0.35223968580000    3.02344644530000
H        -1.21135740860000    1.29653114610000    3.62731736790000
H         0.07147608430000    0.87111630130000    2.49525263050000
H        -1.84009754770000    2.25563405810000   -1.24703282260000
H        -1.16951575760000   -0.02332983730000   -3.14987726270000
H        -0.02937920950000    1.16711131290000   -2.53464071220000
H        -1.36295102410000    1.67546360560000   -3.57068970130000
H        -3.61619875880000    0.00344629060000   -2.25938708940000
H        -3.70045838200000    1.69666811910000   -2.73284586670000
H        -4.07945789350000    1.22505351840000   -1.07866992700000
H        -3.26523197750000   -1.51873999260000   -0.13552050420000
H        -0.72786270000000   -2.52335230950000   -1.48884192180000
H        -2.15720288660000   -1.87167096920000   -2.27953528290000
H        -2.25826431040000   -3.39146052090000   -1.39900055840000
H        -0.78531597420000   -2.64791549030000    1.22287461200000
H        -2.31485498120000   -3.49200492880000    1.00122174210000
H        -2.24044276940000   -2.05362855470000    2.01159745050000
H         0.61169200860000    2.20845801700000   -0.11904435730000
H         3.22423888050000    2.88530773620000   -0.48192685950000
H         4.98853903710000    0.83020294120000    0.94205528440000
H         5.43553198190000    2.53402590770000    0.44552441080000
$end

$rem
BASIS = 6-31G*
GUI = 2
METHOD = B3LYP
PRINT_ORBITALS false
MOLDEN_FORMAT false
--------------------------------------------------------------

             Standard Nuclear Orientation (Angstroms)
    I     Atom           X                Y                Z
 ----------------------------------------------------------------
    1      C       3.8365385757    -2.5776701045    -0.2150999603
    2      C       3.7377251100    -1.2768556918    -0.4609294171
    3      C       2.5510026144    -0.4798404249    -0.2302807238
    4      C       1.2538242540    -0.9236161542    -0.2372737489
    5      N       0.3905159724     0.1213508640    -0.0723046071
    6      Si     -1.3770901001     0.1462154980     0.0459021287
    7      C      -1.7445808138     0.8176806876     1.8175269041
    8      C      -3.1887829580     0.5834273456     2.2587927810
    9      C      -0.7793689902     0.2655348606     2.8673537145
   10      C      -1.9549958990     1.4599089242    -1.2442238707
   11      C      -1.1295054971     1.4364752775    -2.5311382286
   12      C      -3.4415390123     1.3432849522    -1.5794722574
   13      C      -2.1455203472    -1.5858482307    -0.2810575901
   14      C      -1.8397623223    -2.1271011299    -1.6788588982
   15      C      -1.7806984387    -2.6303383896     0.7749784986
   16      C       1.1524130074     1.2526140220     0.0417106152
   17      C       2.4846998822     0.9421031852    -0.0418494008
   18      C       3.5636958124     1.8996170824     0.0840372315
   19      C       4.7924885551     1.6380203090     0.5130786914
   20      H       4.7368294932    -3.1283657271    -0.4282005678
   21      H       3.0246290137    -3.1376701551     0.2177515505
   22      H       4.5817360652    -0.7416290434    -0.8767934457
   23      H       0.8921152310    -1.9196684626    -0.3844931627
   24      H      -1.5929500349     1.9030819702     1.7885474747
   25      H      -3.4093278368    -0.4787444313     2.3236537455
   26      H      -3.8880015965     1.0333810292     1.5589930272
   27      H      -3.3617322457     1.0236389039     3.2397631369
   28      H      -0.8896757721    -0.8100744547     2.9738827288
   29      H      -0.9736345877     0.7227159912     3.8365745674
   30      H       0.2512781009     0.4749952129     2.5930177928
   31      H      -1.8086535391     2.4467140455    -0.7899853206
   32      H      -1.2541656493     0.4947704837    -3.0586044708
   33      H      -0.0720762880     1.5659593182    -2.3164476706
   34      H      -1.4442081499     2.2398935522    -3.1958225326
   35      H      -3.6577176628     0.3939022685    -2.0622557669
   36      H      -3.7411474167     2.1412537058    -2.2573595574
   37      H      -4.0513957820     1.4153049303    -0.6828427020
   38      H      -3.2313383762    -1.4479974255    -0.2246910047
   39      H      -0.7707745219    -2.2396364169    -1.8364915021
   40      H      -2.2256557849    -1.4625767614    -2.4467346767
   41      H      -2.3067563189    -3.1022309705    -1.8140642476
   42      H      -0.7076951140    -2.7925877814     0.8210429193
   43      H      -2.2565270873    -3.5820450782     0.5400033428
   44      H      -2.1179707764    -2.3226697852     1.7606993996
   45      H       0.6906134309     2.2071182439     0.2010313540
   46      H       3.2927666968     2.9180154748    -0.1713044066
   47      H       5.0924733293     0.6529298330     0.8258811223
   48      H       5.5388115796     2.4113693858     0.5849852779
 ----------------------------------------------------------------

    9   -1009.5137509392      2.16e-06  Convergence criterion met
 Total energy in the final basis set =    -1009.5137509392

                    Orbital Energies (a.u.)
 --------------------------------------------------------------

 Alpha MOs
 -- Occupied --
-66.1425 -14.3563 -10.1960 -10.1959 -10.1880 -10.1810 -10.1803 -10.1795
-10.1784 -10.1778 -10.1777 -10.1770 -10.1756 -10.1699 -10.1694 -10.1687
-10.1672 -10.1636 -10.1621  -5.2854  -3.6461  -3.6434  -3.6431  -0.9668
 -0.8073  -0.7948  -0.7830  -0.7802  -0.7698  -0.7212  -0.7069  -0.6919
 -0.6855  -0.6832  -0.6162  -0.6056  -0.5851  -0.5824  -0.5693  -0.5521
 -0.5188  -0.5167  -0.4799  -0.4618  -0.4589  -0.4515  -0.4472  -0.4413
 -0.4358  -0.4323  -0.4184  -0.4140  -0.4082  -0.4061  -0.4021  -0.4003
 -0.3963  -0.3867  -0.3859  -0.3828  -0.3733  -0.3536  -0.3500  -0.3489
 -0.3447  -0.3395  -0.3361  -0.3329  -0.3270  -0.3247  -0.2983  -0.2763
 -0.2757  -0.2659  -0.2021  -0.1954

          Ground-State Mulliken Net Atomic Charges

     Atom                 Charge (a.u.)
  ----------------------------------------
      1 C                    -0.359898
      2 C                    -0.112316
      3 C                     0.038469
      4 C                    -0.047180
      5 N                    -0.510953
      6 Si                    0.888248
      7 C                    -0.276030
      8 C                    -0.466678
      9 C                    -0.462078
     10 C                    -0.281401
     11 C                    -0.462045
     12 C                    -0.465904
     13 C                    -0.296811
     14 C                    -0.468525
     15 C                    -0.467832
     16 C                    -0.062666
     17 C                     0.055608
     18 C                    -0.110879
     19 C                    -0.361965
     20 H                     0.133302
     21 H                     0.128462
     22 H                     0.135551
     23 H                     0.145696
     24 H                     0.142494
     25 H                     0.148325
     26 H                     0.149592
     27 H                     0.144177
     28 H                     0.145622
     29 H                     0.136862
     30 H                     0.171356
     31 H                     0.141490
     32 H                     0.146924
     33 H                     0.166812
     34 H                     0.136295
     35 H                     0.148597
     36 H                     0.144362
     37 H                     0.150021
     38 H                     0.151035
     39 H                     0.160217
     40 H                     0.155572
     41 H                     0.143249
     42 H                     0.156617
     43 H                     0.143681
     44 H                     0.156325
     45 H                     0.145911
     46 H                     0.120317
     47 H                     0.148399
     48 H                     0.133573
  ----------------------------------------
  Sum of atomic charges =     0.000000

                    Cartesian Multipole Moments
 -----------------------------------------------------------------
    Charge (ESU x 10^10)
                -0.0000
    Dipole Moment (Debye)
         X      -2.9628      Y       0.1551      Z       0.0029
       Tot       2.9669
    Quadrupole Moments (Debye-Ang)
        XX    -127.7174     XY       1.1916     YY    -121.2339
        XZ      -0.3007     YZ       0.1553     ZZ    -130.0145

 Total job time:  124.58s(wall), 124.26s(cpu)
        *  Thank you very much for using Q-Chem.  Have a nice day.  *
