 Q-Chem 5.2, Q-Chem, Inc., Pleasanton, CA (2019)
 Q-Chem 5.2.1 for Intel X86 EM64T Linux

User input:
--------------------------------------------------------------
$molecule
0 1
C         3.08368431370000   -2.07035199570000   -0.22796319280000
C         2.71547503600000   -0.87044492190000    0.20232932400000
C         1.36855962900000   -0.31879629370000    0.09543701490000
C         0.23956110250000   -1.12144881550000    0.10825473910000
C        -1.05775425710000   -0.59851245880000    0.04295488300000
C        -2.19528745950000   -1.50471974840000    0.06386469420000
C        -3.48234459860000   -1.19483525690000   -0.04520195990000
C        -1.10882429000000    0.79560538680000   -0.02166317710000
F        -2.28482381780000    1.44383454610000   -0.06206073310000
N        -0.06977096630000    1.59157049340000   -0.05126897960000
C         1.15498731350000    1.07646112300000   -0.00171546880000
N         2.17201187500000    1.98127453630000   -0.01428091970000
H         4.09169329320000   -2.42763598910000   -0.10692500630000
H         2.40000783380000   -2.73439968480000   -0.72906366850000
H         3.44592995500000   -0.22915557610000    0.67990467930000
H         0.35930427940000   -2.19159634510000    0.19572908210000
H        -1.91349979780000   -2.54550778860000    0.17707343280000
H        -3.83802963830000   -0.18795227230000   -0.16502777550000
H        -4.23542975220000   -1.96428637440000   -0.01773732290000
H         1.89978968180000    2.92749045640000   -0.22262757570000
H         3.08635378360000    1.68767848760000   -0.30815007180000
$end

$rem
BASIS = 6-31G*
GUI = 2
METHOD = B3LYP
PRINT_ORBITALS false
MOLDEN_FORMAT false
--------------------------------------------------------------

             Standard Nuclear Orientation (Angstroms)
    I     Atom           X                Y                Z
 ----------------------------------------------------------------
    1      C       3.0353667625    -2.0231885598    -0.2407732115
    2      C       2.6701275785    -0.8252804795     0.1975454826
    3      C       1.3243563706    -0.2699828160     0.0952339528
    4      C       0.1935962779    -1.0702095474     0.1037091517
    5      C      -1.1026078389    -0.5440018872     0.0427662883
    6      C      -2.2421255062    -1.4478144837     0.0586702105
    7      C      -3.5285745727    -1.1343932635    -0.0474238537
    8      C      -1.1506439693     0.8506139769    -0.0127974674
    9      F      -2.3252373087     1.5016828950    -0.0481194978
   10      N      -0.1098559836     1.6444604010    -0.0380360863
   11      C       1.1137969501     1.1263414097     0.0072658627
   12      N       2.1328093698     2.0289719688    -0.0002123929
   13      H       4.0426724805    -2.3834701773    -0.1228048095
   14      H       2.3498552712    -2.6824719116    -0.7456434984
   15      H       3.4023497498    -0.1887059514     0.6787088602
   16      H       0.3110382630    -2.1411619449     0.1841719786
   17      H      -1.9625556261    -2.4899319036     0.1649350433
   18      H      -3.8821214440    -0.1259743325    -0.1604693653
   19      H      -4.2833381389    -1.9023431579    -0.0243696595
   20      H       1.8625258175     2.9771137135    -0.2022318286
   21      H       3.0462833871     1.7352669244    -0.2966603829
 ----------------------------------------------------------------

    9    -557.6861671587      2.41e-06  Convergence criterion met
 Total energy in the final basis set =     -557.6861671587

                    Orbital Energies (a.u.)
 --------------------------------------------------------------

 Alpha MOs
 -- Occupied --
-24.7056 -14.3557 -14.3262 -10.2994 -10.2690 -10.2048 -10.2001 -10.1982
-10.1980 -10.1893 -10.1870 -10.1708  -1.2218  -0.9802  -0.9048  -0.8343
 -0.8030  -0.7494  -0.7259  -0.6576  -0.6405  -0.5969  -0.5664  -0.5626
 -0.5361  -0.4966  -0.4944  -0.4714  -0.4666  -0.4516  -0.4403  -0.4141
 -0.4070  -0.4034  -0.3859  -0.3640  -0.3477  -0.3390  -0.3116  -0.2827
 -0.2775  -0.2479  -0.1995

          Ground-State Mulliken Net Atomic Charges

     Atom                 Charge (a.u.)
  ----------------------------------------
      1 C                    -0.339345
      2 C                    -0.150171
      3 C                     0.152199
      4 C                    -0.245154
      5 C                     0.098396
      6 C                    -0.114020
      7 C                    -0.363976
      8 C                     0.451891
      9 F                    -0.264484
     10 N                    -0.541863
     11 C                     0.421037
     12 N                    -0.772188
     13 H                     0.145187
     14 H                     0.145431
     15 H                     0.132416
     16 H                     0.143673
     17 H                     0.125185
     18 H                     0.158114
     19 H                     0.136445
     20 H                     0.345978
     21 H                     0.335249
  ----------------------------------------
  Sum of atomic charges =     0.000000

                    Cartesian Multipole Moments
 -----------------------------------------------------------------
    Charge (ESU x 10^10)
                 0.0000
    Dipole Moment (Debye)
         X       2.9793      Y      -0.8137      Z      -0.6450
       Tot       3.1551
    Quadrupole Moments (Debye-Ang)
        XX     -60.8826     XY       6.0373     YY     -63.8983
        XZ      -1.5165     YZ      -1.3039     ZZ     -71.8059

 Total job time:  26.90s(wall), 25.62s(cpu)
        *  Thank you very much for using Q-Chem.  Have a nice day.  *
