 Q-Chem 5.2, Q-Chem, Inc., Pleasanton, CA (2019)
 Q-Chem 5.2.1 for Intel X86 EM64T Linux

User input:
--------------------------------------------------------------
$molecule
0 1
C         3.82674638810000    1.33815573550000    0.41891182100000
C         3.29788079570000    0.14298765670000    0.18506347570000
C         1.88273329820000   -0.16627920310000    0.03175063770000
C         0.85748455510000    0.77300871890000    0.15828913320000
C        -0.46427226880000    0.37724053930000   -0.00616349660000
C        -1.54045364880000    1.41192377340000    0.11884066200000
O        -2.45516214750000    1.53516027860000   -0.64483268310000
O        -1.40184228130000    2.24557952510000    1.16744208140000
C        -0.74744400130000   -0.96919961290000   -0.29613375400000
C        -2.10827333710000   -1.45651639390000   -0.47140429790000
C        -2.49064207470000   -2.71209619290000   -0.26905712370000
C         0.36260879590000   -1.81848354870000   -0.40138357460000
N         1.60914169950000   -1.44388426550000   -0.24291214950000
H         4.89097723770000    1.46647460680000    0.51394054640000
H         3.23713091410000    2.23404737080000    0.51943944830000
H         3.93361713780000   -0.72562861540000    0.08337938140000
H         1.09478639080000    1.80930834680000    0.35179679120000
H        -0.63561416570000    2.02885748950000    1.71609932940000
H        -2.83254527690000   -0.71346916310000   -0.77217936290000
H        -1.81329889310000   -3.48017508790000    0.06580528690000
H        -3.51343460390000   -3.01222028970000   -0.41689310090000
H         0.22507590600000   -2.86202201800000   -0.65029281560000
$end

$rem
BASIS = 6-31G*
GUI = 2
METHOD = B3LYP
PRINT_ORBITALS false
MOLDEN_FORMAT false
--------------------------------------------------------------

             Standard Nuclear Orientation (Angstroms)
    I     Atom           X                Y                Z
 ----------------------------------------------------------------
    1      C       4.0241756960    -0.5172941137     0.0445626595
    2      C       3.2355938856     0.5504414011     0.0147264641
    3      C       1.7791301962     0.5560703301     0.0365230984
    4      C       0.9914337684    -0.5966813597     0.0468505281
    5      C      -0.3934423544    -0.4852159935     0.0671438174
    6      C      -1.2106632058    -1.7404954946     0.0951661492
    7      O      -2.1434643470    -1.9266930698     0.8233751480
    8      O      -0.8051141126    -2.6964054024    -0.7624620579
    9      C      -0.9799595156     0.7927171766     0.0745259675
   10      C      -2.4232027780     0.9850163099     0.0856533423
   11      C      -3.0427740650     2.0650296637    -0.3762269865
   12      C      -0.0887744676     1.8745103398     0.0650021417
   13      N       1.2178758967     1.7674830062     0.0428194760
   14      H       5.0955979959    -0.4180376632     0.0276539373
   15      H       3.6489266030    -1.5258744471     0.0928105872
   16      H       3.6613952320     1.5434781073    -0.0248449059
   17      H       1.4590221113    -1.5705624513     0.0711621477
   18      H      -0.0559270229    -2.4153623000    -1.3054466073
   19      H      -2.9979191838     0.1647618435     0.4906698023
   20      H      -2.5159607091     2.8925704972    -0.8217779549
   21      H      -4.1149633495     2.1491202171    -0.3391672435
   22      H      -0.4657782366     2.8877233720     0.0983360961
 ----------------------------------------------------------------

    9    -591.6393177628      6.09e-06  Convergence criterion met
 Total energy in the final basis set =     -591.6393177628

                    Orbital Energies (a.u.)
 --------------------------------------------------------------

 Alpha MOs
 -- Occupied --
-19.2077 -19.1472 -14.3409 -10.3336 -10.2433 -10.2342 -10.2338 -10.2232
-10.2202 -10.2016 -10.1985 -10.1984 -10.1932  -1.1176  -1.0356  -0.9673
 -0.8468  -0.8215  -0.7877  -0.7397  -0.6781  -0.6725  -0.6317  -0.6005
 -0.5905  -0.5405  -0.5271  -0.4852  -0.4750  -0.4678  -0.4628  -0.4593
 -0.4468  -0.4297  -0.4193  -0.4010  -0.3917  -0.3726  -0.3707  -0.3413
 -0.3272  -0.3056  -0.2896  -0.2848  -0.2636  -0.2345

          Ground-State Mulliken Net Atomic Charges

     Atom                 Charge (a.u.)
  ----------------------------------------
      1 C                    -0.347094
      2 C                    -0.088082
      3 C                     0.303114
      4 C                    -0.246356
      5 C                     0.018299
      6 C                     0.553719
      7 O                    -0.430272
      8 O                    -0.560458
      9 C                     0.100395
     10 C                    -0.137443
     11 C                    -0.339290
     12 C                    -0.009445
     13 N                    -0.474585
     14 H                     0.157041
     15 H                     0.144145
     16 H                     0.152437
     17 H                     0.145625
     18 H                     0.417662
     19 H                     0.186070
     20 H                     0.149097
     21 H                     0.155677
     22 H                     0.149742
  ----------------------------------------
  Sum of atomic charges =     0.000000

                    Cartesian Multipole Moments
 -----------------------------------------------------------------
    Charge (ESU x 10^10)
                 0.0000
    Dipole Moment (Debye)
         X       2.1146      Y       0.6281      Z      -1.8538
       Tot       2.8814
    Quadrupole Moments (Debye-Ang)
        XX     -71.5142     XY     -12.8849     YY     -77.7033
        XZ       1.8338     YZ       2.5422     ZZ     -75.8445

 Total job time:  30.46s(wall), 30.36s(cpu)
        *  Thank you very much for using Q-Chem.  Have a nice day.  *
