 Q-Chem 5.2, Q-Chem, Inc., Pleasanton, CA (2019)
 Q-Chem 5.2.1 for Intel X86 EM64T Linux

User input:
--------------------------------------------------------------
$molecule
0 1
C         3.20006640300000   -1.05626378660000    0.35666784720000
C         2.63032400120000   -0.01749335830000   -0.24312910840000
C         1.23273356300000    0.39691693070000   -0.12219968320000
C         0.96216068110000    1.76281779690000   -0.08556093090000
C        -0.32595475970000    2.23728646160000    0.06186334550000
C        -1.37236189430000    1.34023877790000    0.16839720520000
C        -1.15149577690000   -0.03045054210000    0.10543196720000
C        -2.26878067460000   -0.96493551610000    0.24594390800000
C        -3.50051118570000   -0.74818728960000   -0.19606742330000
C         0.16193377180000   -0.51441508030000   -0.06111804430000
N         0.38348479970000   -1.87418784170000   -0.16723693380000
H         4.24840699380000   -1.27023243570000    0.22915842380000
H         2.66039735780000   -1.70065304870000    1.03000558480000
H         3.24278985200000    0.64004538650000   -0.85018781040000
H         1.78781307330000    2.45683174030000   -0.15580361520000
H        -0.51328113060000    3.29966768430000    0.10303579410000
H        -2.37892419900000    1.70072403320000    0.31797485320000
H        -2.04766305980000   -1.88791355140000    0.76910896990000
H        -3.76378724210000    0.14466706020000   -0.73811590860000
H        -4.29184603200000   -1.46195697980000   -0.04108621640000
H        -0.39638734550000   -2.41409439810000   -0.50657901220000
H         1.26994840140000   -2.12782817040000   -0.57704073490000
$end

$rem
BASIS = 6-31G*
GUI = 2
METHOD = B3LYP
PRINT_ORBITALS false
MOLDEN_FORMAT false
--------------------------------------------------------------

             Standard Nuclear Orientation (Angstroms)
    I     Atom           X                Y                Z
 ----------------------------------------------------------------
    1      C       3.2053917324    -1.0292557114     0.3515224191
    2      C       2.6311861240     0.0098899029    -0.2433482447
    3      C       1.2322254587     0.4186776873    -0.1191691376
    4      C       0.9567008909     1.7834158379    -0.0765868450
    5      C      -0.3329756329     2.2525524756     0.0742146771
    6      C      -1.3759761625     1.3512474458     0.1781908280
    7      C      -1.1501698514    -0.0183523521     0.1093171887
    8      C      -2.2638728342    -0.9574939130     0.2471943431
    9      C      -3.4968799261    -0.7434332187    -0.1925617177
   10      C       0.1648339847    -0.4968130580    -0.0606769991
   11      N       0.3912371500    -1.8553157486    -0.1726595235
   12      H       4.2543648315    -1.2388563954     0.2219762081
   13      H       2.6688339411    -1.6783915933     1.0227841056
   14      H       3.2405660351     0.6721678819    -0.8483572443
   15      H       1.7797311806     2.4807321326    -0.1448685297
   16      H      -0.5241393962     3.3140616615     0.1199843829
   17      H      -2.3836824159     1.7074243287     0.3303647429
   18      H      -2.0387983458    -1.8818088097     0.7662960496
   19      H      -3.7640234610     0.1506820835    -0.7306248091
   20      H      -4.2854261640    -1.4607292539    -0.0396617084
   21      H      -0.3870335885    -2.3966679715    -0.5133721987
   22      H       1.2781646318    -2.1040144016    -0.5844834067
 ----------------------------------------------------------------

    8    -442.3951721646      7.83e-06  Convergence criterion met
 Total energy in the final basis set =     -442.3951721646

                    Orbital Energies (a.u.)
 --------------------------------------------------------------

 Alpha MOs
 -- Occupied --
-14.3366 -10.2243 -10.1909 -10.1876 -10.1837 -10.1826 -10.1795 -10.1785
-10.1773 -10.1772 -10.1702  -0.9246  -0.8406  -0.8023  -0.7695  -0.7167
 -0.7153  -0.6267  -0.6134  -0.5708  -0.5495  -0.5207  -0.5036  -0.4746
 -0.4574  -0.4484  -0.4340  -0.4208  -0.4092  -0.3846  -0.3754  -0.3695
 -0.3400  -0.3301  -0.3076  -0.2981  -0.2742  -0.2189  -0.1932

          Ground-State Mulliken Net Atomic Charges

     Atom                 Charge (a.u.)
  ----------------------------------------
      1 C                    -0.364628
      2 C                    -0.146195
      3 C                     0.141949
      4 C                    -0.200299
      5 C                    -0.133561
      6 C                    -0.198303
      7 C                     0.138705
      8 C                    -0.152818
      9 C                    -0.338819
     10 C                     0.182015
     11 N                    -0.812442
     12 H                     0.141181
     13 H                     0.165254
     14 H                     0.134878
     15 H                     0.123255
     16 H                     0.119654
     17 H                     0.126224
     18 H                     0.137862
     19 H                     0.143918
     20 H                     0.140106
     21 H                     0.325505
     22 H                     0.326558
  ----------------------------------------
  Sum of atomic charges =     0.000000

                    Cartesian Multipole Moments
 -----------------------------------------------------------------
    Charge (ESU x 10^10)
                 0.0000
    Dipole Moment (Debye)
         X       0.1975      Y      -0.9365      Z      -1.0234
       Tot       1.4012
    Quadrupole Moments (Debye-Ang)
        XX     -59.3795     XY       0.1280     YY     -58.4145
        XZ      -1.1372     YZ       0.9688     ZZ     -68.2104

 Total job time:  22.56s(wall), 22.48s(cpu)
        *  Thank you very much for using Q-Chem.  Have a nice day.  *
