 Q-Chem 5.2, Q-Chem, Inc., Pleasanton, CA (2019)
 Q-Chem 5.2.1 for Intel X86 EM64T Linux

User input:
--------------------------------------------------------------
$molecule
0 1
C        -0.84315157620000    4.36059635630000   -0.03291800450000
C        -1.57912192780000    3.25768112830000    0.02818041980000
C        -1.09340267360000    1.88169937490000    0.01839075650000
C        -2.02879712640000    0.84556449560000    0.01037197900000
C        -1.60189494620000   -0.46987638980000   -0.00155482290000
Cl       -2.77474081740000   -1.74062870330000   -0.01334202990000
C        -0.25726326780000   -0.79514932050000   -0.00312503810000
C         0.69105212800000    0.22951497900000    0.00811344720000
C         2.12496090350000   -0.01952390870000    0.01008971950000
C         2.76108433760000   -1.18193809890000   -0.00016046770000
F         2.24015170640000   -2.40054979240000   -0.01442042120000
F         4.08792057470000   -1.28057564450000    0.00295862290000
C         0.25991829350000    1.55456985480000    0.01869217120000
H        -1.29909324320000    5.33537830520000   -0.02116311420000
H         0.23101449300000    4.34653572140000   -0.09964661740000
H        -2.65631491290000    3.35000665330000    0.08613582720000
H        -3.08487195940000    1.06711519260000    0.01145283150000
H         0.03649728000000   -1.83070469500000   -0.01164890370000
H         2.76470473250000    0.85096173150000    0.02100200320000
H         0.99810311160000    2.34062051820000    0.03092523350000
$end

$rem
BASIS = 6-31G*
GUI = 2
METHOD = B3LYP
PRINT_ORBITALS false
MOLDEN_FORMAT false
--------------------------------------------------------------

             Standard Nuclear Orientation (Angstroms)
    I     Atom           X                Y                Z
 ----------------------------------------------------------------
    1      C       3.1325443544    -2.9940270466    -0.0404149113
    2      C       3.0930815324    -1.6688101820     0.0232272407
    3      C       1.8997530172    -0.8290160444     0.0156326087
    4      C       2.0614730978     0.5574973481     0.0101737471
    5      C       0.9511629396     1.3820503856     0.0003715075
    6      Cl      1.1703995886     3.0973866900    -0.0082582476
    7      C      -0.3331128911     0.8677827089    -0.0015371125
    8      C      -0.5120089829    -0.5168782534     0.0071535643
    9      C      -1.8248509359    -1.1450204316     0.0085888201
   10      C      -3.0169630733    -0.5664356640     0.0000355759
   11      F      -3.2987559348     0.7285722912    -0.0116173728
   12      F      -4.1553789341    -1.2550844698     0.0024113524
   13      C       0.6073210961    -1.3468105802     0.0155929763
   14      H       4.0690757888    -3.5241440786    -0.0301370820
   15      H       2.2490163556    -3.6050194680    -0.1078663000
   16      H       4.0244334923    -1.1198251194     0.0817634413
   17      H       3.0504851885     0.9890446011     0.0115828385
   18      H      -1.1727039884     1.5414169576    -0.0083589653
   19      H      -1.8416507952    -2.2251943519     0.0174522897
   20      H       0.4613638448    -2.4152361061     0.0258640700
 ----------------------------------------------------------------

    9   -1045.1109557819      5.59e-06  Convergence criterion met
 Total energy in the final basis set =    -1045.1109557819

                    Orbital Energies (a.u.)
 --------------------------------------------------------------

 Alpha MOs
 -- Occupied --
******** -24.7526 -24.7415 -10.3658 -10.2529 -10.2202 -10.2112 -10.2107
-10.2018 -10.2015 -10.2004 -10.1992 -10.1904  -9.4667  -7.2304  -7.2211
 -7.2207  -1.2941  -1.2326  -0.9031  -0.8576  -0.8245  -0.7840  -0.7459
 -0.7336  -0.6567  -0.6409  -0.6136  -0.5806  -0.5701  -0.5287  -0.5271
 -0.5158  -0.4974  -0.4598  -0.4583  -0.4484  -0.4458  -0.4351  -0.4257
 -0.4146  -0.4090  -0.3880  -0.3665  -0.3589  -0.3526  -0.3286  -0.3141
 -0.2782  -0.2367  -0.2304

          Ground-State Mulliken Net Atomic Charges

     Atom                 Charge (a.u.)
  ----------------------------------------
      1 C                    -0.349249
      2 C                    -0.112272
      3 C                     0.182122
      4 C                    -0.201652
      5 C                    -0.068127
      6 Cl                   -0.013127
      7 C                    -0.196821
      8 C                     0.201025
      9 C                    -0.296342
     10 C                     0.548967
     11 F                    -0.229704
     12 F                    -0.244655
     13 C                    -0.253265
     14 H                     0.150411
     15 H                     0.145864
     16 H                     0.133449
     17 H                     0.150441
     18 H                     0.159938
     19 H                     0.162866
     20 H                     0.130131
  ----------------------------------------
  Sum of atomic charges =     0.000000

                    Cartesian Multipole Moments
 -----------------------------------------------------------------
    Charge (ESU x 10^10)
                 0.0000
    Dipole Moment (Debye)
         X       0.6748      Y      -2.1505      Z       0.0125
       Tot       2.2539
    Quadrupole Moments (Debye-Ang)
        XX     -76.7186     XY      -2.2366     YY     -77.6828
        XZ       0.1102     YZ       0.1026     ZZ     -82.4238

 Total job time:  28.29s(wall), 28.08s(cpu)
        *  Thank you very much for using Q-Chem.  Have a nice day.  *
