 Q-Chem 5.2, Q-Chem, Inc., Pleasanton, CA (2019)
 Q-Chem 5.2.1 for Intel X86 EM64T Linux

User input:
--------------------------------------------------------------
$molecule
0 1
C        -0.85903979910000   -3.46591958310000    0.67209785900000
C        -1.26072088700000   -2.46390284770000   -0.09805805050000
C        -0.70035968690000   -1.11353270180000   -0.09102055470000
C        -1.58365525560000   -0.03490233690000   -0.09240028650000
O        -2.91046238660000   -0.35349009440000   -0.12797440830000
C        -3.86341318180000    0.68002038730000   -0.14236310610000
C        -1.10823118550000    1.27901874850000   -0.02467933170000
C         0.23981082730000    1.56578757350000    0.04311298100000
C         0.76159387100000    2.91903373060000    0.14713749320000
C         0.05674330800000    4.04429259250000    0.20264988830000
C         1.16801423040000    0.48660044240000    0.00120918130000
N         2.48283790600000    0.77469214490000    0.03878276680000
C         3.35133398070000   -0.19221023290000   -0.03760497950000
C         2.99540863950000   -1.54099351710000   -0.20050291050000
C         1.66713402770000   -1.86539706690000   -0.23007338410000
C         0.69140597720000   -0.85300578410000   -0.08806876540000
H        -1.33230466420000   -4.43240350120000    0.62969994700000
H        -0.06438604490000   -3.35385970300000    1.39136855410000
H        -2.11193046990000   -2.59566469760000   -0.75409013050000
H        -4.83088560380000    0.18233573300000   -0.19364071910000
H        -3.74593526730000    1.32862779370000   -1.01669883880000
H        -3.81909697900000    1.28336257110000    0.77019690680000
H        -1.81128417790000    2.09535700030000   -0.00874479750000
H         1.84120131070000    2.95870864870000    0.17908391040000
H        -1.02004394050000    4.07110849060000    0.17691345470000
H         0.54386664040000    5.00123756560000    0.27762285770000
H         4.39249326740000    0.10268539120000    0.00720565080000
H         3.75992080200000   -2.29445878110000   -0.31315072140000
H         1.35234042580000   -2.88639327760000   -0.38538611000000
$end

$rem
BASIS = 6-31G*
GUI = 2
METHOD = B3LYP
PRINT_ORBITALS false
MOLDEN_FORMAT false
--------------------------------------------------------------

             Standard Nuclear Orientation (Angstroms)
    I     Atom           X                Y                Z
 ----------------------------------------------------------------
    1      C      -0.4175337404    -3.5462558957     0.6640469085
    2      C      -0.9342314789    -2.5967143811    -0.1040154057
    3      C      -0.5349779849    -1.1902732425    -0.0954303578
    4      C      -1.5379085727    -0.2218803855    -0.0940375330
    5      O      -2.8186176779    -0.6928056751    -0.1285976215
    6      C      -3.8854906845     0.2226796535    -0.1402066489
    7      C      -1.2186869522     1.1383757892    -0.0247303261
    8      C       0.0868620096     1.5801247873     0.0419716671
    9      C       0.4475945586     2.9847848960     0.1475927478
   10      C      -0.3834616705     4.0201915955     0.2057473610
   11      C       1.1344016997     0.6164742995    -0.0027573505
   12      N       2.4067640334     1.0557122796     0.0337664732
   13      C       3.3818770528     0.1966776998    -0.0451950235
   14      C       3.1852743997    -1.1841420885    -0.2098736231
   15      C       1.9037932947    -1.6610233986    -0.2384378324
   16      C       0.8169671689    -0.7693981716    -0.0936618798
   17      H      -0.7750492416    -4.5612266182     0.6206248144
   18      H       0.3596166215    -3.3434541869     1.3825809164
   19      H      -1.7651730746    -2.8257656460    -0.7592776522
   20      H      -4.7884700760    -0.3842409614    -0.1911760673
   21      H      -3.8455355349     0.8818491453    -1.0136222250
   22      H      -3.9105392047     0.8257257693     0.7732808702
   23      H      -2.0120252197     1.8672333408    -0.0066575908
   24      H       1.5152722154     3.1499056480     0.1783572559
   25      H      -1.4560754154     3.9214282451     0.1812976214
   26      H      -0.0110273741     5.0272544998     0.2817129478
   27      H       4.3816554125     0.6107834547    -0.0011071888
   28      H       4.0322002394    -1.8432523105    -0.3246282191
   29      H       1.7098692417    -2.7115078802    -0.3950460453
 ----------------------------------------------------------------

    9    -671.2427376296      3.14e-06  Convergence criterion met
 Total energy in the final basis set =     -671.2427376296

                    Orbital Energies (a.u.)
 --------------------------------------------------------------

 Alpha MOs
 -- Occupied --
-19.1841 -14.3200 -10.2516 -10.2449 -10.2159 -10.2151 -10.2009 -10.1972
-10.1962 -10.1945 -10.1909 -10.1906 -10.1890 -10.1789 -10.1780 -10.1748
 -1.0741  -0.9461  -0.8581  -0.8211  -0.7853  -0.7646  -0.7569  -0.7259
 -0.6982  -0.6535  -0.6238  -0.6158  -0.5775  -0.5529  -0.5332  -0.5220
 -0.5155  -0.4780  -0.4754  -0.4667  -0.4569  -0.4409  -0.4362  -0.4288
 -0.4138  -0.4053  -0.4032  -0.3907  -0.3701  -0.3649  -0.3539  -0.3487
 -0.3288  -0.3275  -0.3064  -0.2755  -0.2618  -0.2454  -0.2364  -0.1969

          Ground-State Mulliken Net Atomic Charges

     Atom                 Charge (a.u.)
  ----------------------------------------
      1 C                    -0.341257
      2 C                    -0.107355
      3 C                    -0.011750
      4 C                     0.349774
      5 O                    -0.509638
      6 C                    -0.215241
      7 C                    -0.301510
      8 C                     0.154922
      9 C                    -0.095539
     10 C                    -0.354014
     11 C                     0.171166
     12 N                    -0.508246
     13 C                     0.043214
     14 C                    -0.160506
     15 C                    -0.154715
     16 C                     0.121214
     17 H                     0.143057
     18 H                     0.150167
     19 H                     0.147059
     20 H                     0.171653
     21 H                     0.154066
     22 H                     0.155115
     23 H                     0.133011
     24 H                     0.166811
     25 H                     0.133411
     26 H                     0.144551
     27 H                     0.134654
     28 H                     0.133988
     29 H                     0.151939
  ----------------------------------------
  Sum of atomic charges =     0.000000

                    Cartesian Multipole Moments
 -----------------------------------------------------------------
    Charge (ESU x 10^10)
                 0.0000
    Dipole Moment (Debye)
         X      -1.6638      Y      -0.8577      Z      -0.2425
       Tot       1.8875
    Quadrupole Moments (Debye-Ang)
        XX     -78.4094     XY      -7.6293     YY     -88.3861
        XZ       0.8644     YZ       0.2826     ZZ     -95.6747

 Total job time:  54.99s(wall), 54.83s(cpu)
        *  Thank you very much for using Q-Chem.  Have a nice day.  *
