 Q-Chem 5.2, Q-Chem, Inc., Pleasanton, CA (2019)
 Q-Chem 5.2.1 for Intel X86 EM64T Linux

User input:
--------------------------------------------------------------
$molecule
0 1
C        -3.53401922510000    1.42177794340000   -0.38320858210000
C        -2.36873753330000    1.66355507080000    0.19930389820000
C        -1.16555768980000    0.82855871190000    0.13558604670000
C         0.04554032100000    1.48674168310000   -0.08066246070000
C         1.25653273510000    0.82700015520000   -0.17870070080000
C         2.50672314630000    1.62825827290000   -0.42348054990000
C         3.13157928070000    2.07841539610000    0.89910836240000
C         1.27443154770000   -0.56600781300000   -0.02305449690000
C         2.51868351800000   -1.33223954240000   -0.09374932200000
C         2.61542239570000   -2.57190003220000   -0.55526979190000
C         0.07103352410000   -1.21800357600000    0.22729757910000
C        -1.14706419050000   -0.55985736120000    0.30515555080000
C        -2.37386997020000   -1.37657378500000    0.60690061280000
C        -2.81309896870000   -2.19496187190000   -0.60877141070000
H        -4.35586883270000    2.11388492050000   -0.30212648870000
H        -3.71121131530000    0.54548759130000   -0.98158021560000
H        -2.23589381120000    2.59352784930000    0.74134569790000
H         0.02919140440000    2.56235224940000   -0.19941999610000
H         2.25553963500000    2.51263270860000   -1.01344277070000
H         3.22888736450000    1.04314085440000   -0.99458476520000
H         2.42823505770000    2.69299275420000    1.45669581390000
H         4.03240652940000    2.66041125330000    0.71639368500000
H         3.39159855130000    1.22076864520000    1.51558592200000
H         3.41106728120000   -0.83130128400000    0.25616301170000
H         1.76534441480000   -3.10718434110000   -0.94421221080000
H         3.55629018010000   -3.09536102080000   -0.57778155430000
H         0.08984453660000   -2.28532790090000    0.39609369890000
H        -3.18884460020000   -0.72849170840000    0.92997390480000
H        -2.14529172550000   -2.06499550910000    1.42524148700000
H        -3.01924701210000   -1.54676552590000   -1.45758347470000
H        -3.71192571960000   -2.76341260640000   -0.37947501470000
H        -2.02984540420000   -2.88997617100000   -0.90254402350000
$end

$rem
BASIS = 6-31G*
GUI = 2
METHOD = B3LYP
PRINT_ORBITALS false
MOLDEN_FORMAT false
--------------------------------------------------------------

             Standard Nuclear Orientation (Angstroms)
    I     Atom           X                Y                Z
 ----------------------------------------------------------------
    1      C       3.3794164917     1.7427284979     0.4589345518
    2      C       2.1812839938     1.9161643498    -0.0796347688
    3      C       1.0704828733     0.9595931157    -0.0760341264
    4      C      -0.1949547187     1.4669783518     0.2205372061
    5      C      -1.3303348061     0.6800084836     0.2749751595
    6      C      -2.6483621176     1.3224426681     0.6140771129
    7      C      -3.3488027768     1.8261546813    -0.6500372593
    8      C      -1.2115596044    -0.6871043112    -0.0112282043
    9      C      -2.3699699577    -1.5804375784     0.0064611758
   10      C      -2.3294153227    -2.8607639581     0.3503177848
   11      C       0.0447301814    -1.1860045145    -0.3410402738
   12      C       1.1878500606    -0.4017474167    -0.3756537461
   13      C       2.4827334652    -1.0566361482    -0.7725491207
   14      C       3.0329880065    -1.9342594285     0.3533003188
   15      H       4.1249301650     2.5201787763     0.4305870863
   16      H       3.6592320057     0.8378140908     0.9689969241
   17      H       1.9415902200     2.8736047178    -0.5292579136
   18      H      -0.2841884579     2.5229854555     0.4400709536
   19      H      -2.4727858706     2.1696852228     1.2808752501
   20      H      -3.2930893047     0.6159598540     1.1387221964
   21      H      -2.7254223967     2.5586318339    -1.1581477923
   22      H      -4.2988180638     2.2930798364    -0.3989487945
   23      H      -3.5365360017     1.0069231669    -1.3405649663
   24      H      -3.3169266400    -1.1437458768    -0.2804185211
   25      H      -1.4200796367    -3.3394255001     0.6734737975
   26      H      -3.2118008028    -3.4780149268     0.3381736564
   27      H       0.1294094658    -2.2294378586    -0.6095611743
   28      H       3.2197098209    -0.3011517652    -1.0458247614
   29      H       2.3040767062    -1.6863952144    -1.6485283165
   30      H       3.1941674360    -1.3494593989     1.2561666188
   31      H       3.9784651393    -2.3836741159     0.0571550285
   32      H       2.3315516036    -2.7302590519     0.5924758663
 ----------------------------------------------------------------

    8    -544.2972139298      6.14e-06  Convergence criterion met
 Total energy in the final basis set =     -544.2972139298

                    Orbital Energies (a.u.)
 --------------------------------------------------------------

 Alpha MOs
 -- Occupied --
-10.1873 -10.1868 -10.1865 -10.1861 -10.1842 -10.1842 -10.1819 -10.1771
-10.1771 -10.1766 -10.1765 -10.1754 -10.1734 -10.1710  -0.8671  -0.8125
 -0.7888  -0.7707  -0.7545  -0.7155  -0.7052  -0.6418  -0.6266  -0.6051
 -0.5863  -0.5620  -0.5331  -0.4952  -0.4790  -0.4667  -0.4452  -0.4417
 -0.4340  -0.4248  -0.4162  -0.4094  -0.4069  -0.3918  -0.3794  -0.3701
 -0.3574  -0.3523  -0.3485  -0.3414  -0.3369  -0.3230  -0.3178  -0.2926
 -0.2631  -0.2323  -0.2113

          Ground-State Mulliken Net Atomic Charges

     Atom                 Charge (a.u.)
  ----------------------------------------
      1 C                    -0.338928
      2 C                    -0.139679
      3 C                     0.099077
      4 C                    -0.257504
      5 C                     0.127461
      6 C                    -0.345060
      7 C                    -0.440403
      8 C                     0.116871
      9 C                    -0.134208
     10 C                    -0.338715
     11 C                    -0.258168
     12 C                     0.139402
     13 C                    -0.347402
     14 C                    -0.442160
     15 H                     0.141095
     16 H                     0.150923
     17 H                     0.134743
     18 H                     0.116834
     19 H                     0.144960
     20 H                     0.146829
     21 H                     0.151052
     22 H                     0.143938
     23 H                     0.151730
     24 H                     0.134425
     25 H                     0.143447
     26 H                     0.140664
     27 H                     0.121450
     28 H                     0.152035
     29 H                     0.143231
     30 H                     0.151496
     31 H                     0.143182
     32 H                     0.147385
  ----------------------------------------
  Sum of atomic charges =     0.000000

                    Cartesian Multipole Moments
 -----------------------------------------------------------------
    Charge (ESU x 10^10)
                 0.0000
    Dipole Moment (Debye)
         X      -0.1430      Y       0.1881      Z      -0.0619
       Tot       0.2443
    Quadrupole Moments (Debye-Ang)
        XX     -79.7860     XY      -0.1144     YY     -80.1773
        XZ      -0.0785     YZ       0.0732     ZZ     -88.6791

 Total job time:  44.93s(wall), 44.46s(cpu)
        *  Thank you very much for using Q-Chem.  Have a nice day.  *
