 Q-Chem 5.2, Q-Chem, Inc., Pleasanton, CA (2019)
 Q-Chem 5.2.1 for Intel X86 EM64T Linux

User input:
--------------------------------------------------------------
$molecule
0 1
C         3.69894363450000    1.39353863190000   -0.38903518520000
C         3.05975020700000    0.34625008500000    0.11772600300000
C         1.61799464700000    0.13781424620000    0.07512296180000
C         0.72431945290000    1.20560669190000   -0.02803576140000
C        -0.64861297910000    1.01531370590000   -0.05089902450000
C        -1.53085580430000    2.17316965370000   -0.10501508870000
C        -2.74580818520000    2.27358492820000    0.42281526880000
C        -1.08910259300000   -0.32937413080000   -0.02769970700000
N        -2.41189339590000   -0.66708816880000   -0.10459551120000
N        -2.78057014690000   -2.00715943220000   -0.34844913090000
N        -0.24360206960000   -1.35215388720000    0.07342637600000
C         1.06184508700000   -1.14696069860000    0.14685738380000
C         1.89804913000000   -2.38384463410000    0.27070759720000
H         4.76919341760000    1.48668141190000   -0.31906208380000
H         3.18806325400000    2.18966767710000   -0.90396355910000
H         3.63251925920000   -0.43716504220000    0.59579878180000
H         1.10821212570000    2.21559803840000   -0.05074188660000
H        -1.09883035580000    3.03787677090000   -0.59630267440000
H        -3.20138504630000    1.47847586870000    0.98727457320000
H        -3.31013785240000    3.18775154320000    0.34581218410000
H        -3.02401845360000   -0.00001042040000   -0.55762369220000
H        -2.87242934600000   -2.48131503930000    0.54986888640000
H        -2.01549200450000   -2.47134711950000   -0.84176457370000
H         1.24972663120000   -3.25542088500000    0.25184079760000
H         2.45202146450000   -2.37819490990000    1.20863704200000
H         2.61155115480000   -2.44968898480000   -0.54882151340000
$end

$rem
BASIS = 6-31G*
GUI = 2
METHOD = B3LYP
PRINT_ORBITALS false
MOLDEN_FORMAT false
--------------------------------------------------------------

             Standard Nuclear Orientation (Angstroms)
    I     Atom           X                Y                Z
 ----------------------------------------------------------------
    1      C       3.6479164451    -1.4841210590     0.3604515998
    2      C       3.0321516766    -0.4157364882    -0.1310528243
    3      C       1.5958403975    -0.1739690255    -0.0812731458
    4      C       0.6775309053    -1.2216453038     0.0112464419
    5      C      -0.6904610038    -0.9993845331     0.0408420291
    6      C      -1.5996056198    -2.1367399122     0.0831522573
    7      C      -2.8180933099    -2.2018257369    -0.4420610196
    8      C      -1.0991810527     0.3554877670     0.0359780174
    9      N      -2.4134142840     0.7232517093     0.1213005879
   10      N      -2.7496865830     2.0684346715     0.3831819821
   11      N      -0.2300883499     1.3592759604    -0.0549240539
   12      C       1.0699412669     1.1243499442    -0.1350576827
   13      C       1.9347242958     2.3426725740    -0.2459550654
   14      H       4.7154674287    -1.6015428494     0.2859302530
   15      H       3.1198783997    -2.2744610768     0.8669196923
   16      H       3.6218665393     0.3599700325    -0.6010241052
   17      H       1.0375616852    -2.2406019554     0.0200129781
   18      H      -1.1866888369    -3.0175345354     0.5621391473
   19      H      -3.2564055231    -1.3891226807    -0.9950159413
   20      H      -3.4036021081    -3.1033541053    -0.3747996169
   21      H      -3.0398021252     0.0650849250     0.5678194541
   22      H      -2.8329079424     2.5559653676    -0.5087961220
   23      H      -1.9724661133     2.5081923888     0.8798875192
   24      H       1.3071930242     3.2289628432    -0.2140608392
   25      H       2.4857236875     2.3358653448    -1.1856264134
   26      H       2.6519223969     2.3813105540     0.5720807353
 ----------------------------------------------------------------

    9    -553.0779035055      1.92e-06  Convergence criterion met
 Total energy in the final basis set =     -553.0779035055

                    Orbital Energies (a.u.)
 --------------------------------------------------------------

 Alpha MOs
 -- Occupied --
-14.3690 -14.3433 -14.3142 -10.2536 -10.2234 -10.1970 -10.1963 -10.1947
-10.1879 -10.1851 -10.1820 -10.1764 -10.1757  -0.9987  -0.9308  -0.8304
 -0.8194  -0.7789  -0.7550  -0.7404  -0.6875  -0.6358  -0.6150  -0.5904
 -0.5548  -0.5279  -0.5100  -0.4948  -0.4793  -0.4706  -0.4594  -0.4349
 -0.4286  -0.4173  -0.4028  -0.3946  -0.3866  -0.3738  -0.3687  -0.3448
 -0.3229  -0.3066  -0.2828  -0.2612  -0.2466  -0.2439  -0.1930

          Ground-State Mulliken Net Atomic Charges

     Atom                 Charge (a.u.)
  ----------------------------------------
      1 C                    -0.348001
      2 C                    -0.129850
      3 C                     0.116666
      4 C                    -0.231057
      5 C                     0.136439
      6 C                    -0.135149
      7 C                    -0.370361
      8 C                     0.455566
      9 N                    -0.537145
     10 N                    -0.566052
     11 N                    -0.582201
     12 C                     0.253556
     13 C                    -0.522385
     14 H                     0.140344
     15 H                     0.137840
     16 H                     0.128896
     17 H                     0.135389
     18 H                     0.135273
     19 H                     0.163478
     20 H                     0.144693
     21 H                     0.335116
     22 H                     0.320162
     23 H                     0.320279
     24 H                     0.169641
     25 H                     0.162927
     26 H                     0.165934
  ----------------------------------------
  Sum of atomic charges =     0.000000

                    Cartesian Multipole Moments
 -----------------------------------------------------------------
    Charge (ESU x 10^10)
                 0.0000
    Dipole Moment (Debye)
         X       0.5723      Y      -0.5717      Z      -0.0573
       Tot       0.8110
    Quadrupole Moments (Debye-Ang)
        XX     -74.9668     XY       3.6671     YY     -71.2584
        XZ       1.1568     YZ      -3.2090     ZZ     -78.6960

 Total job time:  36.43s(wall), 36.32s(cpu)
        *  Thank you very much for using Q-Chem.  Have a nice day.  *
