 Q-Chem 5.2, Q-Chem, Inc., Pleasanton, CA (2019)
 Q-Chem 5.2.1 for Intel X86 EM64T Linux

User input:
--------------------------------------------------------------
$molecule
0 1
C         2.68829710170000    2.75268866540000    0.00540453690000
C         2.59613099940000    1.42735862180000   -0.00664915010000
C         1.36199053020000    0.67925035520000   -0.00184157060000
C         0.06216856060000    1.15689327520000    0.00045958320000
N        -0.76067282100000    0.09158700670000    0.00903061380000
C        -2.21592069480000    0.11269406800000   -0.00079797880000
C        -2.68830335890000    0.74753416780000   -1.31309915410000
C        -2.71893925900000   -1.32528202360000    0.09836313220000
C        -2.71000826220000    0.92579870760000    1.19982642410000
N        -0.08808922320000   -1.04957407750000    0.00888220140000
C         1.20309813550000   -0.73693936000000    0.00297634790000
C         2.23666384970000   -1.74670339140000    0.00109668370000
C         1.99380656060000   -3.05231789610000   -0.00169515700000
H         3.64220836360000    3.25125359270000    0.00137940590000
H         1.81912816390000    3.38813566520000    0.02029051930000
H         3.50060832720000    0.83339065840000   -0.02023034020000
H        -0.30555985290000    2.16220053050000   -0.00455610300000
H        -2.30910311030000    0.18089248530000   -2.16047545670000
H        -2.33642123210000    1.77287800720000   -1.39879493240000
H        -3.77422011290000    0.75100990970000   -1.35486851030000
H        -2.34560369620000   -1.91149474780000   -0.73589141510000
H        -3.80538686980000   -1.33796172640000    0.08765208150000
H        -2.36531920110000   -1.78409957820000    1.01712719600000
H        -2.39582000550000    1.96405531980000    1.12826503540000
H        -2.31603184600000    0.50830883210000    2.12367744070000
H        -3.79560693700000    0.89926390850000    1.24215035720000
H         3.25374985430000   -1.37777576730000    0.00106682520000
H         0.98311784920000   -3.42138898180000   -0.00167913480000
H         2.78802848110000   -3.77907043040000   -0.00389685350000
$end

$rem
BASIS = 6-31G*
GUI = 2
METHOD = B3LYP
PRINT_ORBITALS false
MOLDEN_FORMAT false
--------------------------------------------------------------

             Standard Nuclear Orientation (Angstroms)
    I     Atom           X                Y                Z
 ----------------------------------------------------------------
    1      C      -2.7326594184    -2.7479952390     0.0053455236
    2      C      -2.6434655603    -1.4224600196    -0.0065053862
    3      C      -1.4110055401    -0.6715871136    -0.0016098052
    4      C      -0.1101157851    -1.1463146355     0.0005884306
    5      N       0.7103350258    -0.0791673524     0.0093056944
    6      C       2.1656263450    -0.0970097883    -0.0005587339
    7      C       2.6394014714    -0.7305863169    -1.3129685862
    8      C       2.6654215779     1.3420752518     0.0988133669
    9      C       2.6615631548    -0.9091900031     1.1999289234
   10      N       0.0351943323     1.0604827607     0.0093487120
   11      C      -1.2552889052     0.7449545592     0.0034234397
   12      C      -2.2911162201     1.7523988008     0.0017229771
   13      C      -2.0511871361     3.0585549899    -0.0008725068
   14      H      -3.6854504599    -3.2486972084     0.0012646875
   15      H      -1.8620674882    -3.3814940254     0.0201138376
   16      H      -3.5492727552    -0.8305195373    -0.0199745285
   17      H       0.2598657531    -2.1507940315    -0.0045908645
   18      H       2.2589123557    -0.1646654079    -2.1602488118
   19      H       2.2898173720    -1.7567033393    -1.3988149619
   20      H       3.7253223394    -0.7316206816    -1.3547627856
   21      H       2.2907535481     1.9275782758    -0.7353422100
   22      H       3.7518377826     1.3571926826     0.0880799576
   23      H       2.3107945029     1.7999567815     1.0176562485
   24      H       2.3497021058    -1.9481374300     1.1282140976
   25      H       2.2666726062    -0.4927273238     2.1238532736
   26      H       3.7471005643    -0.8802276089     1.2422326577
   27      H      -3.3073724355     1.3811915353     0.0016588639
   28      H      -1.0413285198     3.4298913743    -0.0008220645
   29      H      -2.8470366802     3.7835251715    -0.0029441006
 ----------------------------------------------------------------

    9    -538.2566653079      3.33e-06  Convergence criterion met
 Total energy in the final basis set =     -538.2566653079

                    Orbital Energies (a.u.)
 --------------------------------------------------------------

 Alpha MOs
 -- Occupied --
-14.4083 -14.3331 -10.2432 -10.2101 -10.1979 -10.1866 -10.1854 -10.1844
-10.1804 -10.1789 -10.1740 -10.1713 -10.1667  -1.0563  -0.8698  -0.8055
 -0.7967  -0.7537  -0.7288  -0.7042  -0.6949  -0.6404  -0.6141  -0.5668
 -0.5505  -0.5395  -0.4996  -0.4748  -0.4637  -0.4538  -0.4512  -0.4358
 -0.4279  -0.4168  -0.3976  -0.3944  -0.3884  -0.3802  -0.3757  -0.3580
 -0.3498  -0.3462  -0.3397  -0.3051  -0.2945  -0.2747  -0.2203  -0.2034

          Ground-State Mulliken Net Atomic Charges

     Atom                 Charge (a.u.)
  ----------------------------------------
      1 C                    -0.358378
      2 C                    -0.102328
      3 C                    -0.015525
      4 C                     0.025385
      5 N                    -0.216432
      6 C                     0.167464
      7 C                    -0.436294
      8 C                    -0.436369
      9 C                    -0.441359
     10 N                    -0.398908
     11 C                     0.275598
     12 C                    -0.085394
     13 C                    -0.347649
     14 H                     0.138569
     15 H                     0.129267
     16 H                     0.128333
     17 H                     0.156556
     18 H                     0.164536
     19 H                     0.146151
     20 H                     0.150690
     21 H                     0.170233
     22 H                     0.139159
     23 H                     0.165203
     24 H                     0.146066
     25 H                     0.164335
     26 H                     0.152211
     27 H                     0.125320
     28 H                     0.158576
     29 H                     0.134986
  ----------------------------------------
  Sum of atomic charges =     0.000000

                    Cartesian Multipole Moments
 -----------------------------------------------------------------
    Charge (ESU x 10^10)
                 0.0000
    Dipole Moment (Debye)
         X       1.8660      Y      -1.4691      Z      -0.0159
       Tot       2.3749
    Quadrupole Moments (Debye-Ang)
        XX     -70.4266     XY      -1.9367     YY     -77.2795
        XZ       0.0378     YZ      -0.0618     ZZ     -81.8399

 Total job time:  45.29s(wall), 45.14s(cpu)
        *  Thank you very much for using Q-Chem.  Have a nice day.  *
