 Q-Chem 5.2, Q-Chem, Inc., Pleasanton, CA (2019)
 Q-Chem 5.2.1 for Intel X86 EM64T Linux

User input:
--------------------------------------------------------------
$molecule
0 1
C        -4.67549011510000    0.99168643970000   -0.10207687830000
C        -3.97588084710000   -0.13135911070000    0.01193969350000
C        -2.52417223210000   -0.25847257860000    0.01399662080000
C        -1.96510494140000   -1.55896023620000    0.00810896420000
C        -0.61593138830000   -1.75272467660000    0.00594878480000
C         0.27347950090000   -0.65561031690000    0.01358176150000
C         1.66837020730000   -0.82255109780000    0.01223189300000
C         2.52415982210000    0.25807429280000    0.02285668810000
C         3.97587789070000    0.13090703750000    0.02042954040000
C         4.67546485790000   -0.98915290010000   -0.11981028370000
C         1.96510750750000    1.55843585280000    0.04187875280000
C         0.61593422540000    1.75220745350000    0.04139795470000
C        -0.27345868670000    0.65515250320000    0.02604127470000
C        -1.66834251670000    0.82212217380000    0.02586621770000
H        -5.75197222490000    0.98337785610000   -0.09515037840000
H        -4.21370346630000    1.95802325520000   -0.21074288630000
H        -4.50888820670000   -1.07029737700000    0.10553742150000
H        -2.63291628090000   -2.40933715210000    0.00222170530000
H        -0.20596178320000   -2.75302563150000   -0.00064512270000
H         2.05909767670000   -1.82924503060000    0.00894220070000
H         4.50881652120000    1.06720175220000    0.13761341220000
H         4.21357502750000   -1.95232623290000   -0.25308576980000
H         5.75193588640000   -0.98135123880000   -0.11079990440000
H         2.63292671280000    2.40873981720000    0.05383562530000
H         0.20594142950000    2.75244275250000    0.05392463770000
H        -2.05900960030000    1.82871881110000    0.04151890450000
$end

$rem
BASIS = 6-31G*
GUI = 2
METHOD = B3LYP
PRINT_ORBITALS false
MOLDEN_FORMAT false
--------------------------------------------------------------

             Standard Nuclear Orientation (Angstroms)
    I     Atom           X                Y                Z
 ----------------------------------------------------------------
    1      C       4.7070501297    -0.8280481674    -0.1084774005
    2      C       3.9689410567     0.2688624186     0.0166879998
    3      C       2.5137001754     0.3455896891     0.0193092239
    4      C       1.9099205402     1.6259247888     0.0264669011
    5      C       0.5548450470     1.7728542574     0.0256065399
    6      C      -0.2960292885     0.6455715719     0.0215417679
    7      C      -1.6958654528     0.7641030915     0.0211934894
    8      C      -2.5137103270    -0.3455675627     0.0203064851
    9      C      -3.9689618318    -0.2687408562     0.0184444168
   10      C      -4.7069062094     0.8277957669    -0.1106637802
   11      C      -1.9099520409    -1.6259119382     0.0262838092
   12      C      -0.5548761656    -1.7728214727     0.0245032584
   13      C       0.2959834459    -0.6455195274     0.0208441157
   14      C       1.6958139725    -0.7640645088     0.0196672494
   15      H       5.7825973144    -0.7825304934    -0.1009185248
   16      H       4.2790311051    -1.8086339093    -0.2272771003
   17      H       4.4690894425     1.2246889472     0.1201756186
   18      H       2.5478750146     2.4989377279     0.0296356296
   19      H       0.1104721642     2.7583700574     0.0290570685
   20      H      -2.1212297070     1.7566402725     0.0280233723
   21      H      -4.4691654226    -1.2240860114     0.1257544287
   22      H      -4.2786373840     1.8077062302    -0.2338252063
   23      H      -5.7824623229     0.7826215396    -0.1022814145
   24      H      -2.5479178341    -2.4989145262     0.0291851183
   25      H      -0.1104832898    -2.7583317327     0.0269858776
   26      H       2.1211126112    -1.7566334062     0.0252006765
 ----------------------------------------------------------------

    8    -540.6888548905      2.33e-06  Convergence criterion met
 Total energy in the final basis set =     -540.6888548905

                    Orbital Energies (a.u.)
 --------------------------------------------------------------

 Alpha MOs
 -- Occupied --
-10.1949 -10.1949 -10.1939 -10.1934 -10.1900 -10.1899 -10.1877 -10.1877
-10.1870 -10.1870 -10.1865 -10.1865 -10.1798 -10.1798  -0.8803  -0.8396
 -0.7950  -0.7829  -0.7526  -0.7337  -0.7066  -0.6487  -0.6154  -0.6078
 -0.5799  -0.5485  -0.5167  -0.5147  -0.4799  -0.4649  -0.4493  -0.4485
 -0.4320  -0.4219  -0.4107  -0.4010  -0.3966  -0.3757  -0.3643  -0.3554
 -0.3510  -0.3371  -0.3282  -0.3042  -0.2920  -0.2524  -0.2309  -0.2009

          Ground-State Mulliken Net Atomic Charges

     Atom                 Charge (a.u.)
  ----------------------------------------
      1 C                    -0.348436
      2 C                    -0.118066
      3 C                     0.180599
      4 C                    -0.199664
      5 C                    -0.192135
      6 C                     0.153182
      7 C                    -0.271937
      8 C                     0.180515
      9 C                    -0.118098
     10 C                    -0.348381
     11 C                    -0.199621
     12 C                    -0.192133
     13 C                     0.153187
     14 C                    -0.271952
     15 H                     0.144357
     16 H                     0.142979
     17 H                     0.126861
     18 H                     0.127506
     19 H                     0.128658
     20 H                     0.126109
     21 H                     0.126882
     22 H                     0.142978
     23 H                     0.144353
     24 H                     0.127503
     25 H                     0.128659
     26 H                     0.126093
  ----------------------------------------
  Sum of atomic charges =     0.000000

                    Cartesian Multipole Moments
 -----------------------------------------------------------------
    Charge (ESU x 10^10)
                 0.0000
    Dipole Moment (Debye)
         X      -0.0004      Y      -0.0002      Z       0.0036
       Tot       0.0037
    Quadrupole Moments (Debye-Ang)
        XX     -73.2615     XY       0.3990     YY     -72.0781
        XZ      -0.0038     YZ      -0.0059     ZZ     -87.4223

 Total job time:  34.39s(wall), 34.28s(cpu)
        *  Thank you very much for using Q-Chem.  Have a nice day.  *
