 Q-Chem 5.2, Q-Chem, Inc., Pleasanton, CA (2019)
 Q-Chem 5.2.1 for Intel X86 EM64T Linux

User input:
--------------------------------------------------------------
$molecule
0 1
C        -3.71312649960000    1.70776375580000    0.00139772330000
C        -2.88499260310000    0.66789024530000   -0.00239279970000
C        -1.43338711890000    0.72014038220000   -0.00041706800000
C        -0.69664231290000    1.88903620440000    0.00038737380000
C         0.69661853260000    1.88904451380000    0.00037614570000
C         1.43337922140000    0.72015702740000   -0.00043770650000
C         2.88498439920000    0.66792380720000   -0.00239886340000
C         3.71309852020000    1.70778935360000    0.00139478810000
C         0.71174937060000   -0.50851877450000   -0.00012911700000
N         1.39061949280000   -1.67406855780000    0.00023770350000
C         0.70358623580000   -2.78372520190000    0.00084078010000
C        -0.70354921500000   -2.78373374390000    0.00082706720000
N        -1.39059647390000   -1.67408570090000    0.00022164730000
C        -0.71174128660000   -0.50852724020000   -0.00012982910000
H        -4.78039179200000    1.56811529150000   -0.00093203830000
H        -3.37372372380000    2.72996060520000    0.00726351740000
H        -3.28262402660000   -0.33755674370000   -0.00760808960000
H        -1.20846643260000    2.83934141310000    0.00072996490000
H         1.20843034660000    2.83935922170000    0.00073690980000
H         3.28262718330000   -0.33753169420000   -0.00744635080000
H         3.37368356300000    2.72996493940000    0.00727907410000
H         4.78036744570000    1.56816336460000   -0.00099160100000
H         1.26951899650000   -3.70610610940000    0.00137128430000
H        -1.26947026910000   -3.70612157790000    0.00133517280000
$end

$rem
BASIS = 6-31G*
GUI = 2
METHOD = B3LYP
PRINT_ORBITALS false
MOLDEN_FORMAT false
--------------------------------------------------------------

             Standard Nuclear Orientation (Angstroms)
    I     Atom           X                Y                Z
 ----------------------------------------------------------------
    1      C       3.7131266129    -1.6758677080     0.0012867786
    2      C       2.8849924914    -0.6359941458    -0.0024398899
    3      C       1.4333870178    -0.6882447208    -0.0004679735
    4      C       0.6966424661    -1.8571407509     0.0002640133
    5      C      -0.6966183794    -1.8571493630     0.0002522185
    6      C      -1.4333793225    -0.6882619891    -0.0004897780
    7      C      -2.8849845109    -0.6360289641    -0.0024483004
    8      C      -3.7130984069    -1.6758949231     0.0012808240
    9      C      -0.7117497395     0.5404139486    -0.0001050494
   10      N      -1.3906201157     1.7059635591     0.0003334443
   11      C      -0.7035871007     2.8156203135     0.0010052989
   12      C       0.7035483501     2.8156291629     0.0009921583
   13      N       1.3905958510     1.7059813090     0.0003185194
   14      C       0.7117409177     0.5404227244    -0.0001051825
   15      H       4.7803918758    -1.5362188676    -0.0010339289
   16      H       3.3737240574    -2.6980649914     0.0070893348
   17      H       3.2826236980     0.3694532498    -0.0075929522
   18      H       1.2084667927    -2.8074458674     0.0005481504
   19      H      -1.2084299865    -2.8074642029     0.0005541120
   20      H      -3.2826275119     0.3694267603    -0.0074338829
   21      H      -3.3736832294    -2.6980707963     0.0071021493
   22      H      -4.7803673618    -1.5362690195    -0.0010973798
   23      H      -1.2695200625     3.7380010633     0.0015925114
   24      H       1.2694692031     3.7380170870     0.0015574326
 ----------------------------------------------------------------

    9    -572.7611486961      2.90e-06  Convergence criterion met
 Total energy in the final basis set =     -572.7611486961

                    Orbital Energies (a.u.)
 --------------------------------------------------------------

 Alpha MOs
 -- Occupied --
-14.3473 -14.3473 -10.2346 -10.2341 -10.2322 -10.2318 -10.2033 -10.2033
-10.1995 -10.1990 -10.1854 -10.1854 -10.1810 -10.1810  -0.9909  -0.9188
 -0.8671  -0.8091  -0.7722  -0.7652  -0.7220  -0.6749  -0.6563  -0.6363
 -0.5892  -0.5588  -0.5297  -0.5260  -0.5177  -0.4810  -0.4658  -0.4501
 -0.4418  -0.4393  -0.4255  -0.4181  -0.3870  -0.3719  -0.3665  -0.3555
 -0.3555  -0.3486  -0.3060  -0.3044  -0.2698  -0.2635  -0.2452  -0.2090

          Ground-State Mulliken Net Atomic Charges

     Atom                 Charge (a.u.)
  ----------------------------------------
      1 C                    -0.349779
      2 C                    -0.098522
      3 C                     0.142740
      4 C                    -0.209750
      5 C                    -0.209751
      6 C                     0.142738
      7 C                    -0.098517
      8 C                    -0.349780
      9 C                     0.222524
     10 N                    -0.471974
     11 C                     0.030121
     12 C                     0.030121
     13 N                    -0.471975
     14 C                     0.222523
     15 H                     0.147181
     16 H                     0.139786
     17 H                     0.164763
     18 H                     0.134166
     19 H                     0.134167
     20 H                     0.164762
     21 H                     0.139786
     22 H                     0.147180
     23 H                     0.148745
     24 H                     0.148745
  ----------------------------------------
  Sum of atomic charges =     0.000000

                    Cartesian Multipole Moments
 -----------------------------------------------------------------
    Charge (ESU x 10^10)
                 0.0000
    Dipole Moment (Debye)
         X       0.0000      Y      -0.1858      Z      -0.0008
       Tot       0.1858
    Quadrupole Moments (Debye-Ang)
        XX     -79.4657     XY      -0.0001     YY     -67.0547
        XZ      -0.0001     YZ      -0.0206     ZZ     -84.0908

 Total job time:  37.86s(wall), 37.74s(cpu)
        *  Thank you very much for using Q-Chem.  Have a nice day.  *
