 Q-Chem 5.2, Q-Chem, Inc., Pleasanton, CA (2019)
 Q-Chem 5.2.1 for Intel X86 EM64T Linux

User input:
--------------------------------------------------------------
$molecule
0 1
C         0.23620991650000   -1.47077480680000   -3.69936583220000
C         0.72933796610000   -0.31487065280000   -3.27824362650000
C         0.44847478350000    0.27902619280000   -1.96865552140000
C        -0.83093179030000    0.18120551690000   -1.43424499750000
C        -1.18774796220000    0.76093456790000   -0.22578753980000
C        -2.57153354540000    0.51702570960000    0.30779254510000
C        -2.66595157890000   -0.89890670110000    0.88913664740000
C        -4.01332207670000   -1.18740784740000    1.55080729860000
C        -5.22497660710000   -1.09172428510000    0.62049472370000
C        -5.17444486490000   -2.00772810170000   -0.60319382140000
C        -5.12379542560000   -3.48793748470000   -0.24392653640000
C        -0.21466387430000    1.47807865920000    0.47239648370000
C        -0.46733791290000    2.17464495450000    1.74314045310000
C        -1.38166208250000    3.11376241120000    1.92529900900000
C         1.07644486700000    1.55325498810000   -0.04748080570000
C         1.43612578630000    0.96761536850000   -1.24821839870000
C         2.84240802220000    1.05251458440000   -1.78894766230000
C         3.94536994130000    1.22303619990000   -0.74338571720000
C         4.01050953110000    0.04323338100000    0.22366010110000
C         5.08398047520000    0.24570008690000    1.29035864820000
C         5.21462651890000   -0.93838795120000    2.24878658380000
C         4.00486841910000   -1.10516099460000    3.16111943200000
H         0.45518875370000   -1.85863048260000   -4.67986121820000
H        -0.39145842390000   -2.08402119440000   -3.07412861310000
H         1.37846934320000    0.25695691690000   -3.92933008300000
H        -1.58539315120000   -0.34785501330000   -1.99931501170000
H        -3.29263658420000    0.62851659060000   -0.50372349370000
H        -2.81760562600000    1.23230355810000    1.09094790920000
H        -1.88116196460000   -1.01511100130000    1.64163736250000
H        -2.46966629550000   -1.62961828870000    0.10316054110000
H        -4.15919409080000   -0.47806621630000    2.36994528000000
H        -3.97704518500000   -2.18589322460000    1.99107196390000
H        -5.33597394770000   -0.06002378410000    0.28033655560000
H        -6.11758216960000   -1.33693851740000    1.20228688180000
H        -4.31147566250000   -1.75402735500000   -1.22087049890000
H        -6.06848048330000   -1.82069198500000   -1.20382851470000
H        -4.19539208570000   -3.73551056890000    0.26417226620000
H        -5.19030456690000   -4.09726458940000   -1.14280038190000
H        -5.95417985370000   -3.74936224710000    0.40880175780000
H         0.20448798220000    1.91288171090000    2.55286898380000
H        -2.03514022840000    3.43284678250000    1.12973077460000
H        -1.50183446350000    3.61429772070000    2.87167386720000
H         1.80770069990000    2.11101589500000    0.51803817770000
H         2.89073293230000    1.89348808920000   -2.49037778060000
H         3.05295696890000    0.14196109800000   -2.35463537760000
H         3.80195645680000    2.15054542380000   -0.18616073670000
H         4.90142909560000    1.31039283810000   -1.26640775150000
H         4.22584876360000   -0.86935440530000   -0.33778039940000
H         3.03624434270000   -0.08250109430000    0.69681498990000
H         4.85731731360000    1.14739092050000    1.86498441780000
H         6.04565711440000    0.40542506870000    0.79537539360000
H         6.10351034260000   -0.79047542670000    2.86716538210000
H         5.36309219190000   -1.85393091660000    1.67164380380000
H         3.82454106010000   -0.19107645610000    3.72318122670000
H         4.17412242180000   -1.91387746420000    3.86869297720000
H         3.11170659080000   -1.33901017780000    2.58764822140000
$end

$rem
BASIS = 6-31G*
GUI = 2
METHOD = B3LYP
PRINT_ORBITALS false
MOLDEN_FORMAT false
--------------------------------------------------------------

             Standard Nuclear Orientation (Angstroms)
    I     Atom           X                Y                Z
 ----------------------------------------------------------------
    1      C      -0.2621265127     3.9074838985    -0.8259907736
    2      C       0.4687056935     3.3652078348     0.1375726939
    3      C       0.3865353047     1.9621107030     0.5513178588
    4      C      -0.8533562338     1.3357922054     0.6007019266
    5      C      -1.0187138925     0.0275983050     1.0308862405
    6      C      -2.3890191972    -0.5855488121     0.9575666467
    7      C      -2.7192644416    -0.9562366900    -0.4933878315
    8      C      -4.0548050210    -1.6856506489    -0.6373838650
    9      C      -5.2789477930    -0.8921136911    -0.1742239549
   10      C      -5.4792454093     0.4536065848    -0.8727566374
   11      C      -5.6931036945     0.3241640100    -2.3761419569
   12      C       0.1143481394    -0.6794089497     1.4370394064
   13      C       0.0772267046    -2.0569758798     1.9515978204
   14      C      -0.6265503220    -2.4577075090     2.9981273623
   15      C       1.3622129928    -0.0629926592     1.3612111593
   16      C       1.5297015551     1.2387326626     0.9235198719
   17      C       2.8909944271     1.8845513586     0.8397006082
   18      C       4.0668509277     0.9282430161     0.6356461017
   19      C       3.9614910309     0.1569101813    -0.6778608159
   20      C       5.1158817353    -0.8275991975    -0.8490385298
   21      C       5.0733400579    -1.5839440560    -2.1771385408
   22      C       3.9110608855    -2.5659826672    -2.2687159699
   23      H      -0.1811520116     4.9503324948    -1.0822423952
   24      H      -0.9574707957     3.3266124251    -1.4091244780
   25      H       1.1755458808     3.9796099854     0.6808579182
   26      H      -1.7280861225     1.9033386945     0.3158164847
   27      H      -3.1225203253     0.1325584876     1.3280745299
   28      H      -2.4453225536    -1.4851029568     1.5684172559
   29      H      -1.9278334476    -1.6098214902    -0.8703750927
   30      H      -2.7148658539    -0.0560692243    -1.1097521413
   31      H      -4.0119517208    -2.6107905283    -0.0562547701
   32      H      -4.1851235701    -1.9676977384    -1.6840875250
   33      H      -5.2094130126    -0.7202786406     0.9019133702
   34      H      -6.1655254255    -1.5085775487    -0.3454233678
   35      H      -4.6222137936     1.1014977238    -0.6821306350
   36      H      -6.3549278871     0.9373262993    -0.4320303429
   37      H      -4.8009677151    -0.0563540277    -2.8667426131
   38      H      -5.9294992090     1.2939644546    -2.8089022079
   39      H      -6.5176046116    -0.3541834318    -2.5858522732
   40      H       0.7334205421    -2.7554150000     1.4445250787
   41      H      -1.2528865418    -1.7800852052     3.5551805841
   42      H      -0.5910988043    -3.4748429592     3.3513709542
   43      H       2.2197675070    -0.6373214024     1.6780562204
   44      H       3.0581790588     2.4547748305     1.7608251571
   45      H       2.8879497754     2.5957559310     0.0104721186
   46      H       4.1384086668     0.2288646551     1.4705651785
   47      H       4.9887078703     1.5159533307     0.6326964123
   48      H       3.9630013136     0.8646628653    -1.5106193317
   49      H       3.0114207667    -0.3776183337    -0.7007327248
   50      H       5.1019729752    -1.5477326417    -0.0269486975
   51      H       6.0588576170    -0.2777484068    -0.7873696976
   52      H       6.0095367320    -2.1353482332    -2.2949270207
   53      H       5.0078399381    -0.8662746835    -2.9981228111
   54      H       3.9441684912    -3.2714352352    -1.4409342826
   55      H       3.9635638824    -3.1275695380    -3.1988735852
   56      H       2.9568207625    -2.0464249482    -2.2408181965
 ----------------------------------------------------------------

    8    -858.7948243570      5.27e-06  Convergence criterion met
 Total energy in the final basis set =     -858.7948243570

                    Orbital Energies (a.u.)
 --------------------------------------------------------------

 Alpha MOs
 -- Occupied --
-10.1867 -10.1853 -10.1848 -10.1843 -10.1836 -10.1823 -10.1794 -10.1770
-10.1765 -10.1753 -10.1749 -10.1741 -10.1727 -10.1719 -10.1716 -10.1716
-10.1700 -10.1700 -10.1697 -10.1679 -10.1662 -10.1648  -0.8664  -0.8176
 -0.8048  -0.8014  -0.7817  -0.7698  -0.7579  -0.7374  -0.7138  -0.7073
 -0.6840  -0.6548  -0.6364  -0.6251  -0.6065  -0.5895  -0.5781  -0.5631
 -0.5598  -0.5406  -0.5315  -0.4975  -0.4773  -0.4699  -0.4667  -0.4634
 -0.4545  -0.4526  -0.4376  -0.4320  -0.4285  -0.4225  -0.4169  -0.4156
 -0.4091  -0.4001  -0.3967  -0.3884  -0.3828  -0.3755  -0.3686  -0.3629
 -0.3594  -0.3549  -0.3540  -0.3478  -0.3399  -0.3359  -0.3322  -0.3245
 -0.3226  -0.3172  -0.3118  -0.3100  -0.3050  -0.3043  -0.3005  -0.2878
 -0.2606  -0.2303  -0.2122

          Ground-State Mulliken Net Atomic Charges

     Atom                 Charge (a.u.)
  ----------------------------------------
      1 C                    -0.336351
      2 C                    -0.135803
      3 C                     0.099935
      4 C                    -0.255327
      5 C                     0.131435
      6 C                    -0.352984
      7 C                    -0.256302
      8 C                    -0.258908
      9 C                    -0.255719
     10 C                    -0.254038
     11 C                    -0.445014
     12 C                     0.086452
     13 C                    -0.151701
     14 C                    -0.322101
     15 C                    -0.258514
     16 C                     0.135411
     17 C                    -0.349585
     18 C                    -0.266849
     19 C                    -0.257968
     20 C                    -0.248091
     21 C                    -0.248859
     22 C                    -0.445342
     23 H                     0.140113
     24 H                     0.143200
     25 H                     0.136921
     26 H                     0.122421
     27 H                     0.143302
     28 H                     0.146592
     29 H                     0.134688
     30 H                     0.137428
     31 H                     0.128783
     32 H                     0.131742
     33 H                     0.132579
     34 H                     0.126118
     35 H                     0.133539
     36 H                     0.130318
     37 H                     0.148367
     38 H                     0.141667
     39 H                     0.141931
     40 H                     0.138597
     41 H                     0.147805
     42 H                     0.140590
     43 H                     0.122250
     44 H                     0.147401
     45 H                     0.148055
     46 H                     0.136158
     47 H                     0.130511
     48 H                     0.127710
     49 H                     0.149604
     50 H                     0.123520
     51 H                     0.125312
     52 H                     0.128090
     53 H                     0.129663
     54 H                     0.138810
     55 H                     0.141455
     56 H                     0.150983
  ----------------------------------------
  Sum of atomic charges =     0.000000

                    Cartesian Multipole Moments
 -----------------------------------------------------------------
    Charge (ESU x 10^10)
                 0.0000
    Dipole Moment (Debye)
         X       0.1948      Y      -0.0359      Z       0.0003
       Tot       0.1981
    Quadrupole Moments (Debye-Ang)
        XX    -134.3875     XY       1.0120     YY    -133.9729
        XZ       0.5419     YZ      -2.2442     ZZ    -139.5246

 Total job time:  123.67s(wall), 123.34s(cpu)
        *  Thank you very much for using Q-Chem.  Have a nice day.  *
