 Q-Chem 5.2, Q-Chem, Inc., Pleasanton, CA (2019)
 Q-Chem 5.2.1 for Intel X86 EM64T Linux

User input:
--------------------------------------------------------------
$molecule
0 1
C         3.58908485850000    0.19139112420000    0.07330765460000
C         2.34364341070000    0.55601654510000   -0.20583115800000
C         1.16738373360000   -0.30155819450000   -0.09710496720000
C         1.26378446590000   -1.69050446810000   -0.10587327890000
C         0.13516694350000   -2.47898983020000    0.02094192240000
C        -1.11352189400000   -1.89808287590000    0.14254876200000
C        -1.26549193230000   -0.51359237840000    0.11716701380000
C        -2.61404859320000    0.04323091920000    0.20040182170000
C        -3.03925527260000    1.14341851210000   -0.40507524330000
C        -0.11161183190000    0.28132307730000    0.01082380640000
C        -0.19718680720000    1.68974317490000    0.09069044090000
N        -0.21418986620000    2.83408159270000    0.18155793410000
H         4.40772784100000    0.88260744050000   -0.02702782630000
H         3.84284826860000   -0.79423405330000    0.42576849090000
H         2.14681979520000    1.57362857100000   -0.51801275880000
H         2.23057900510000   -2.15476625190000   -0.22043266550000
H         0.22908165990000   -3.55495172980000    0.02269578810000
H        -1.99190195040000   -2.51968888220000    0.23767886750000
H        -3.31211459310000   -0.55677795890000    0.77206215220000
H        -2.39914437640000    1.74929150670000   -1.02270065690000
H        -4.05955017060000    1.47358739270000   -0.31022463620000
$end

$rem
BASIS = 6-31G*
GUI = 2
METHOD = B3LYP
PRINT_ORBITALS false
MOLDEN_FORMAT false
--------------------------------------------------------------

             Standard Nuclear Orientation (Angstroms)
    I     Atom           X                Y                Z
 ----------------------------------------------------------------
    1      C       3.5037932709     0.7757789696     0.0883637045
    2      C       2.2160299890     0.9450564104    -0.1855075284
    3      C       1.1899626711    -0.0894277004    -0.0967881379
    4      C       1.5042867323    -1.4452840135    -0.1341482512
    5      C       0.5143895822    -2.4044179805    -0.0258226353
    6      C      -0.8101402357    -2.0304448824     0.1054397329
    7      C      -1.1786826060    -0.6870460355     0.1084601492
    8      C      -2.5980834850    -0.3518095968     0.2006716472
    9      C      -3.1924004483     0.6798400903    -0.3826826246
   10      C      -0.1648250104     0.2819969069     0.0207829168
   11      C      -0.4714313111     1.6573112354     0.1296498140
   12      N      -0.6686432401     2.7824993269     0.2441733205
   13      H       4.2029827428     1.5894285651     0.0039127987
   14      H       3.9103829217    -0.1645655943     0.4208068680
   15      H       1.8606768415     1.9251277096    -0.4769101908
   16      H       2.5320593549    -1.7487194865    -0.2564793102
   17      H       0.7768919777    -3.4518887413    -0.0461833099
   18      H      -1.5793087125    -2.7846879549     0.1860159656
   19      H      -3.1919330103    -1.0661727850     0.7584622030
   20      H      -2.6567700207     1.3918030155    -0.9864160382
   21      H      -4.2518743083     0.8428595626    -0.2829349529
 ----------------------------------------------------------------

    9    -479.2831537591      4.72e-06  Convergence criterion met
 Total energy in the final basis set =     -479.2831537591

                    Orbital Energies (a.u.)
 --------------------------------------------------------------

 Alpha MOs
 -- Occupied --
-14.3273 -10.2314 -10.2219 -10.2218 -10.2207 -10.2096 -10.2054 -10.2050
-10.2005 -10.2003 -10.1933 -10.1900  -0.9140  -0.8852  -0.8223  -0.7989
 -0.7646  -0.7375  -0.6619  -0.6464  -0.6022  -0.5591  -0.5488  -0.5090
 -0.4866  -0.4729  -0.4603  -0.4426  -0.4266  -0.4100  -0.3951  -0.3887
 -0.3699  -0.3657  -0.3520  -0.3480  -0.3259  -0.3189  -0.2939  -0.2496
 -0.2367

          Ground-State Mulliken Net Atomic Charges

     Atom                 Charge (a.u.)
  ----------------------------------------
      1 C                    -0.341073
      2 C                    -0.122470
      3 C                     0.177456
      4 C                    -0.205801
      5 C                    -0.106348
      6 C                    -0.203177
      7 C                     0.165948
      8 C                    -0.132595
      9 C                    -0.327247
     10 C                     0.032726
     11 C                     0.205433
     12 N                    -0.496158
     13 H                     0.155739
     14 H                     0.147306
     15 H                     0.163540
     16 H                     0.140122
     17 H                     0.142041
     18 H                     0.139989
     19 H                     0.139879
     20 H                     0.172323
     21 H                     0.152366
  ----------------------------------------
  Sum of atomic charges =     0.000000

                    Cartesian Multipole Moments
 -----------------------------------------------------------------
    Charge (ESU x 10^10)
                 0.0000
    Dipole Moment (Debye)
         X       0.7745      Y      -3.9279      Z      -0.4109
       Tot       4.0246
    Quadrupole Moments (Debye-Ang)
        XX     -58.5760     XY       2.7900     YY     -73.4329
        XZ       0.0208     YZ      -3.0231     ZZ     -71.9163

 Total job time:  28.38s(wall), 27.02s(cpu)
        *  Thank you very much for using Q-Chem.  Have a nice day.  *
