 Q-Chem 5.2, Q-Chem, Inc., Pleasanton, CA (2019)
 Q-Chem 5.2.1 for Intel X86 EM64T Linux

User input:
--------------------------------------------------------------
$molecule
0 1
C        -2.30139919410000    3.99500474650000   -0.02032700700000
C        -1.10692259600000    3.41821498880000    0.02658522450000
C        -0.82958963560000    1.98574973760000    0.01671190170000
C        -1.83956017000000    1.02310222530000    0.00322008840000
C        -1.50611614210000   -0.31856131980000   -0.00657223840000
Cl       -2.76902075830000   -1.50056438390000   -0.02252227840000
C        -0.18932330930000   -0.74494103680000   -0.00346694600000
C         0.83279965080000    0.20496073490000    0.01120534210000
C         2.24456887780000   -0.14729776160000    0.01655487370000
C         2.79365675010000   -1.35313518960000    0.00434767860000
F         2.18380495510000   -2.52973230120000   -0.01589872820000
F         4.10948644170000   -1.54955089990000    0.01091031480000
C         0.49583540520000    1.55745706960000    0.02204790810000
H        -2.40329904790000    5.06639510890000   -0.00943860460000
H        -3.21989021750000    3.43673867850000   -0.07295527420000
H        -0.22430091520000    4.04387518300000    0.07392529420000
H        -2.87744709740000    1.31118984950000    0.00271368940000
H         0.02508567920000   -1.79981486790000   -0.01142756070000
H         2.94562907360000    0.67461914930000    0.03208831430000
H         1.28522419310000    2.29516103730000    0.03351057630000
$end

$rem
BASIS = 6-31G*
GUI = 2
METHOD = B3LYP
PRINT_ORBITALS false
MOLDEN_FORMAT false
--------------------------------------------------------------

             Standard Nuclear Orientation (Angstroms)
    I     Atom           X                Y                Z
 ----------------------------------------------------------------
    1      C       4.1211060751     1.8190162509     0.0304154218
    2      C       2.8154309337     2.0535191306    -0.0129706366
    3      C       1.7501029248     1.0565063778    -0.0098797743
    4      C       2.0027609829    -0.3157445316    -0.0078575104
    5      C       0.9453022876    -1.2063106681    -0.0039920167
    6      Cl      1.2739872174    -2.9046265758    -0.0022567259
    7      C      -0.3710613735    -0.7786012381    -0.0019856305
    8      C      -0.6410409473     0.5904731725    -0.0051927254
    9      C      -1.9907946389     1.1339540217    -0.0044479822
   10      C      -3.1431125347     0.4799015493     0.0038730842
   11      F      -3.3399676053    -0.8307705029     0.0137089663
   12      F      -4.3237196370     1.0932504178     0.0037626712
   13      C       0.4256249299     1.4877518157    -0.0100653544
   14      H       4.8324616026     2.6266830505     0.0252096116
   15      H       4.5371081619     0.8275233781     0.0744681656
   16      H       2.4680336801     3.0784775289    -0.0515481199
   17      H       3.0121434827    -0.6916920189    -0.0116608759
   18      H      -1.1638144731    -1.5068366116     0.0010391357
   19      H      -2.0759622626     2.2109758660    -0.0111201031
   20      H       0.2195204566     2.5484060777    -0.0126494635
 ----------------------------------------------------------------

    9   -1045.1112087768      5.13e-06  Convergence criterion met
 Total energy in the final basis set =    -1045.1112087768

                    Orbital Energies (a.u.)
 --------------------------------------------------------------

 Alpha MOs
 -- Occupied --
******** -24.7526 -24.7416 -10.3658 -10.2531 -10.2198 -10.2112 -10.2107
-10.2013 -10.2011 -10.2002 -10.1997 -10.1899  -9.4664  -7.2301  -7.2208
 -7.2204  -1.2941  -1.2327  -0.9030  -0.8574  -0.8246  -0.7837  -0.7425
 -0.7369  -0.6611  -0.6362  -0.6094  -0.5806  -0.5735  -0.5328  -0.5272
 -0.5170  -0.4857  -0.4727  -0.4550  -0.4484  -0.4398  -0.4362  -0.4244
 -0.4187  -0.4089  -0.3838  -0.3689  -0.3586  -0.3524  -0.3288  -0.3138
 -0.2775  -0.2385  -0.2288

          Ground-State Mulliken Net Atomic Charges

     Atom                 Charge (a.u.)
  ----------------------------------------
      1 C                    -0.350364
      2 C                    -0.110150
      3 C                     0.182388
      4 C                    -0.185934
      5 C                    -0.069558
      6 Cl                   -0.014292
      7 C                    -0.196604
      8 C                     0.200855
      9 C                    -0.296247
     10 C                     0.549643
     11 F                    -0.229800
     12 F                    -0.244530
     13 C                    -0.268555
     14 H                     0.150152
     15 H                     0.149086
     16 H                     0.130982
     17 H                     0.148705
     18 H                     0.159828
     19 H                     0.163029
     20 H                     0.131365
  ----------------------------------------
  Sum of atomic charges =     0.000000

                    Cartesian Multipole Moments
 -----------------------------------------------------------------
    Charge (ESU x 10^10)
                 0.0000
    Dipole Moment (Debye)
         X       0.5548      Y       2.1892      Z      -0.0055
       Tot       2.2584
    Quadrupole Moments (Debye-Ang)
        XX     -76.7936     XY       2.1081     YY     -77.1082
        XZ       0.0826     YZ      -0.0963     ZZ     -82.4311

 Total job time:  28.10s(wall), 28.00s(cpu)
        *  Thank you very much for using Q-Chem.  Have a nice day.  *
