 Q-Chem 5.2, Q-Chem, Inc., Pleasanton, CA (2019)
 Q-Chem 5.2.1 for Intel X86 EM64T Linux

User input:
--------------------------------------------------------------
$molecule
0 1
C         3.78305171880000    1.54425681860000   -0.15238124720000
C         3.34987631120000    0.29804543270000   -0.00401199340000
C         1.95865595670000   -0.13147162420000    0.02936098920000
C         0.86902294260000    0.74036112650000   -0.03477257060000
C        -0.42074196590000    0.23209995150000    0.01077831540000
C        -1.53786861030000    1.22893366200000    0.05156527980000
O        -1.58987188030000    2.18485656480000   -0.66869476960000
O        -2.45647604880000    1.03385220760000    1.01714581790000
C        -0.60710473970000   -1.15878137090000    0.07191052110000
C        -1.90315006820000   -1.82369002250000   -0.01314862320000
C        -2.93550079420000   -1.38060155940000   -0.72120691110000
C         0.55667349050000   -1.93278448790000    0.15523269700000
N         1.77571778340000   -1.44958879980000    0.14314833680000
H         4.83545383130000    1.76919957890000   -0.17064473020000
H         3.11924747900000    2.38451366880000   -0.26534285840000
H         4.05051536610000   -0.51928456450000    0.09851461000000
H         1.00508199450000    1.80771897580000   -0.09857935780000
H        -2.32253425980000    0.20354776910000    1.49368093190000
H        -1.95999141020000   -2.78241160210000    0.48781522400000
H        -2.89752093020000   -0.45896410000000   -1.27873285120000
H        -3.85481872040000   -1.93667556640000   -0.78248744850000
H         0.48312387490000   -3.01119893230000    0.22478770520000
$end

$rem
BASIS = 6-31G*
GUI = 2
METHOD = B3LYP
PRINT_ORBITALS false
MOLDEN_FORMAT false
--------------------------------------------------------------

             Standard Nuclear Orientation (Angstroms)
    I     Atom           X                Y                Z
 ----------------------------------------------------------------
    1      C       3.9447320117    -1.0411944504     0.1331898825
    2      C       3.3485369857     0.1382950494     0.0064886662
    3      C       1.9123232274     0.3781086445    -0.0230445861
    4      C       0.9493134603    -0.6328811012     0.0218718534
    5      C      -0.3969061585    -0.3012286886    -0.0180936292
    6      C      -1.3703666184    -1.4378018047    -0.0804574590
    7      O      -1.2941185798    -2.4053090964     0.6219550637
    8      O      -2.3064151506    -1.3496099138    -1.0449664072
    9      C      -0.7679374240     1.0530429610    -0.0541932430
   10      C      -2.1414274232     1.5366318629     0.0392897109
   11      C      -3.1053991759     0.9461394438     0.7360673725
   12      C       0.2816661137     1.9773920662    -0.1198767618
   13      N       1.5544585663     1.6617232831    -0.1131177141
   14      H       5.0177770857    -1.1234228922     0.1503875302
   15      H       3.3994585827    -1.9647599576     0.2287493420
   16      H       3.9333807051     1.0438848667    -0.0789514916
   17      H       1.2271419825    -1.6733909061     0.0664454814
   18      H      -2.2847357434    -0.5001246099    -1.5057660383
   19      H      -2.3260077243     2.4882501846    -0.4441308759
   20      H      -2.9445037619     0.0276852396     1.2766668463
   21      H      -4.0909654343     1.3728052521     0.8048750254
   22      H       0.0643041935     3.0373380249    -0.1698119126
 ----------------------------------------------------------------

    9    -591.6379966633      6.34e-06  Convergence criterion met
 Total energy in the final basis set =     -591.6379966633

                    Orbital Energies (a.u.)
 --------------------------------------------------------------

 Alpha MOs
 -- Occupied --
-19.1993 -19.1425 -14.3393 -10.3287 -10.2409 -10.2353 -10.2308 -10.2248
-10.2151 -10.2132 -10.2052 -10.1976 -10.1945  -1.1109  -1.0299  -0.9659
 -0.8509  -0.8177  -0.7901  -0.7445  -0.6810  -0.6658  -0.6262  -0.5993
 -0.5937  -0.5406  -0.5231  -0.4993  -0.4736  -0.4634  -0.4590  -0.4496
 -0.4394  -0.4365  -0.4219  -0.4050  -0.3929  -0.3738  -0.3648  -0.3432
 -0.3220  -0.3052  -0.2917  -0.2796  -0.2632  -0.2371

          Ground-State Mulliken Net Atomic Charges

     Atom                 Charge (a.u.)
  ----------------------------------------
      1 C                    -0.343236
      2 C                    -0.090230
      3 C                     0.300741
      4 C                    -0.200691
      5 C                     0.027973
      6 C                     0.519875
      7 O                    -0.435640
      8 O                    -0.557270
      9 C                     0.094684
     10 C                    -0.183227
     11 C                    -0.327843
     12 C                    -0.007490
     13 N                    -0.474406
     14 H                     0.155479
     15 H                     0.153374
     16 H                     0.150131
     17 H                     0.165433
     18 H                     0.417757
     19 H                     0.147528
     20 H                     0.180513
     21 H                     0.160546
     22 H                     0.145998
  ----------------------------------------
  Sum of atomic charges =     0.000000

                    Cartesian Multipole Moments
 -----------------------------------------------------------------
    Charge (ESU x 10^10)
                 0.0000
    Dipole Moment (Debye)
         X      -0.1956      Y       2.4223      Z      -1.3163
       Tot       2.7638
    Quadrupole Moments (Debye-Ang)
        XX     -67.5482     XY     -13.0485     YY     -80.5748
        XZ       1.5035     YZ       0.4567     ZZ     -74.8791

 Total job time:  31.12s(wall), 31.01s(cpu)
        *  Thank you very much for using Q-Chem.  Have a nice day.  *
