 Q-Chem 5.2, Q-Chem, Inc., Pleasanton, CA (2019)
 Q-Chem 5.2.1 for Intel X86 EM64T Linux

User input:
--------------------------------------------------------------
$molecule
0 1
C        -0.83215169050000    3.69435953330000    0.04079679870000
C        -1.80557291370000    2.79657003850000    0.12743981740000
C        -1.64633419300000    1.34583433010000    0.15203757950000
C        -2.76716736050000    0.54195657950000   -0.03702011550000
C        -2.67647377650000   -0.84781670520000   -0.02307102890000
C        -3.83047068000000   -1.72003607700000   -0.21526189880000
C        -5.05241146570000   -1.35030424400000   -0.57791851820000
C        -1.42830717360000   -1.43133578230000    0.18383408330000
C        -0.30113668120000   -0.64129328300000    0.36900967860000
O         0.87691962870000   -1.29220620130000    0.63385320480000
C         2.06928313340000   -0.75900292940000    0.22095202790000
C         2.21068224470000   -0.03736818520000   -0.95998907840000
C         3.46044594420000    0.41650352980000   -1.33987013550000
C         4.57284094900000    0.15172631630000   -0.55949097240000
C         4.43274766990000   -0.58228567880000    0.60669834950000
C         3.18862046610000   -1.03681364250000    0.99977729810000
C        -0.40858555760000    0.74191414300000    0.36622902900000
H        -1.04381716270000    4.74970491320000    0.02088037670000
H         0.20787619540000    3.42260015070000   -0.02167595230000
H        -2.83316828460000    3.13725609370000    0.16354492590000
H        -3.72485879580000    1.01457332690000   -0.19094540500000
H        -3.62907733940000   -2.77103187720000   -0.04775960530000
H        -5.31826019630000   -0.32602170940000   -0.77531148900000
H        -5.84240719620000   -2.07167603440000   -0.69825229790000
H        -1.31781837040000   -2.50481278300000    0.20677100470000
H         1.34660315230000    0.15746701240000   -1.57880532070000
H         3.56334391310000    0.97680390450000   -2.25753270440000
H         5.54485398370000    0.51071937100000   -0.86193521420000
H         5.29673310320000   -0.79931650170000    1.21705035590000
H         3.06222695360000   -1.61103324040000    1.90438444820000
H         0.46776708140000    1.34258748760000    0.55427125260000
$end

$rem
BASIS = 6-31G*
GUI = 2
METHOD = B3LYP
PRINT_ORBITALS false
MOLDEN_FORMAT false
--------------------------------------------------------------

             Standard Nuclear Orientation (Angstroms)
    I     Atom           X                Y                Z
 ----------------------------------------------------------------
    1      C      -0.8071079222    -3.6640144403    -0.2762902277
    2      C      -1.7812633548    -2.7638856010    -0.3195468252
    3      C      -1.6244667825    -1.3140409652    -0.2566065167
    4      C      -2.7486348807    -0.5241666757    -0.0317200274
    5      C      -2.6603745919     0.8641064981     0.0375432575
    6      C      -3.8178626414     1.7219755631     0.2692648556
    7      C      -5.0427151631     1.3298954662     0.5969388298
    8      C      -1.4112645504     1.4604096368    -0.1217388133
    9      C      -0.2808242123     0.6841243748    -0.3418667417
   10      O       0.8986392905     1.3510459796    -0.5557073566
   11      C       2.0877592013     0.7958196797    -0.1629715268
   12      C       2.2185680939     0.0057069500     0.9745623044
   13      C       3.4652717239    -0.4683003384     1.3396179239
   14      C       4.5849934950    -0.1563949133     0.5876475662
   15      C       4.4553186238     0.6452015519    -0.5344151793
   16      C       3.2143831595     1.1206523909    -0.9125486240
   17      C      -0.3857383494    -0.6969541162    -0.4220602683
   18      H      -1.0170122084    -4.7189509588    -0.3210332662
   19      H       0.2317324176    -3.3951328838    -0.1872539026
   20      H      -2.8078104844    -3.1031185119    -0.3862164314
   21      H      -3.7069554475    -1.0062627768     0.0842002481
   22      H      -3.6167326171     2.7812955603     0.1663264042
   23      H      -5.3086481970     0.2953916424     0.7306388793
   24      H      -5.8352172125     2.0418905039     0.7517105990
   25      H      -1.3025346490     2.5334985159    -0.0799678272
   26      H       1.3486501958    -0.2265035052     1.5719299709
   27      H       3.5599399823    -1.0818217482     2.2235062046
   28      H       5.5545670882    -0.5314518445     0.8781939792
   29      H       5.3250164220     0.8990674105    -1.1220210374
   30      H       3.0960631194     1.7472662869    -1.7828203954
   31      H       0.4935761735    -1.2843458953    -0.6363944939
 ----------------------------------------------------------------

    9    -693.3084150166      1.74e-06  Convergence criterion met
 Total energy in the final basis set =     -693.3084150166

                    Orbital Energies (a.u.)
 --------------------------------------------------------------

 Alpha MOs
 -- Occupied --
-19.1902 -10.2507 -10.2491 -10.1996 -10.1991 -10.1920 -10.1918 -10.1903
-10.1897 -10.1873 -10.1870 -10.1870 -10.1857 -10.1846 -10.1836 -10.1818
-10.1818  -1.0852  -0.8721  -0.8558  -0.8074  -0.7858  -0.7526  -0.7504
 -0.7267  -0.7245  -0.6484  -0.6306  -0.6148  -0.6062  -0.5709  -0.5496
 -0.5325  -0.5113  -0.4950  -0.4877  -0.4723  -0.4579  -0.4571  -0.4448
 -0.4275  -0.4265  -0.4225  -0.4038  -0.3944  -0.3817  -0.3739  -0.3723
 -0.3648  -0.3550  -0.3495  -0.3390  -0.3338  -0.3184  -0.2760  -0.2547
 -0.2411  -0.2230  -0.2137

          Ground-State Mulliken Net Atomic Charges

     Atom                 Charge (a.u.)
  ----------------------------------------
      1 C                    -0.352080
      2 C                    -0.113987
      3 C                     0.181128
      4 C                    -0.264416
      5 C                     0.183082
      6 C                    -0.112782
      7 C                    -0.350885
      8 C                    -0.258246
      9 C                     0.366437
     10 O                    -0.574822
     11 C                     0.351595
     12 C                    -0.176580
     13 C                    -0.134563
     14 C                    -0.129289
     15 C                    -0.132477
     16 C                    -0.176015
     17 C                    -0.247293
     18 H                     0.145549
     19 H                     0.146788
     20 H                     0.129586
     21 H                     0.124548
     22 H                     0.130120
     23 H                     0.144432
     24 H                     0.145849
     25 H                     0.138554
     26 H                     0.151579
     27 H                     0.133016
     28 H                     0.127054
     29 H                     0.132763
     30 H                     0.139439
     31 H                     0.151915
  ----------------------------------------
  Sum of atomic charges =     0.000000

                    Cartesian Multipole Moments
 -----------------------------------------------------------------
    Charge (ESU x 10^10)
                 0.0000
    Dipole Moment (Debye)
         X       0.0618      Y      -0.7513      Z       0.4047
       Tot       0.8556
    Quadrupole Moments (Debye-Ang)
        XX     -86.6410     XY      -1.4527     YY     -93.7705
        XZ      -1.5638     YZ      -1.9284     ZZ    -100.4483

 Total job time:  55.74s(wall), 55.57s(cpu)
        *  Thank you very much for using Q-Chem.  Have a nice day.  *
