 Q-Chem 5.2, Q-Chem, Inc., Pleasanton, CA (2019)
 Q-Chem 5.2.1 for Intel X86 EM64T Linux

User input:
--------------------------------------------------------------
$molecule
0 1
C        -2.06895912170000   -3.15502153200000    0.12213265200000
C        -2.18457881300000   -1.88746181560000   -0.25537595660000
C        -1.12087037250000   -0.89405086960000   -0.15315732730000
C         0.22126526000000   -1.27122180000000   -0.14736078680000
C         1.25019519770000   -0.34745458210000   -0.05135401040000
C         2.64116385450000   -0.88961904900000   -0.17181897810000
O         3.02838650490000   -1.84269126770000    0.44191077660000
O         3.42505009620000   -0.28387120440000   -1.08349480290000
C         0.96177166820000    1.01828760760000    0.09515682530000
C         1.98165401540000    2.04175238890000    0.32200157040000
C         3.10294709760000    1.85389769380000    1.00670367060000
C        -0.37794331140000    1.39996653720000    0.08165121020000
C        -1.40851895610000    0.47845855030000   -0.04932857090000
C        -2.81134437640000    1.00180902380000   -0.08897004030000
O        -3.62853725210000    0.68707414540000   -0.90625775060000
O        -3.10456348960000    1.90640936880000    0.86418053410000
H        -2.89269541280000   -3.84063475800000    0.02577138180000
H        -1.16725054060000   -3.55370795370000    0.55659222220000
H        -3.12210246080000   -1.52596258310000   -0.65134760280000
H         0.48466722260000   -2.31168668710000   -0.25611042110000
H         2.99994494210000    0.48400505710000   -1.48778916740000
H         1.73439319630000    3.02827088500000   -0.05104991960000
H         3.35997586420000    0.90120265930000    1.43960434040000
H         3.80099468990000    2.65615321960000    1.17153479080000
H        -0.61077691200000    2.45456215140000    0.16054088960000
H        -2.37361934660000    2.04969192160000    1.48038078670000
$end

$rem
BASIS = 6-31G*
GUI = 2
METHOD = B3LYP
PRINT_ORBITALS false
MOLDEN_FORMAT false
--------------------------------------------------------------

             Standard Nuclear Orientation (Angstroms)
    I     Atom           X                Y                Z
 ----------------------------------------------------------------
    1      C      -2.1201544687    -3.0888071371     0.5108479469
    2      C      -2.2256017453    -1.8708377248    -0.0068582244
    3      C      -1.1461207682    -0.8897730865    -0.0388363080
    4      C       0.1904002984    -1.2857133291    -0.0151228223
    5      C       1.2340042705    -0.3739685971    -0.0446572738
    6      C       2.6144295271    -0.9489987962    -0.1284087098
    7      O       3.0006705784    -1.8320801043     0.5828841275
    8      O       3.3879323096    -0.4640466500    -1.1178912826
    9      C       0.9679291076     1.0041033387    -0.0498566581
   10      C       2.0065751259     2.0299480776     0.0393381799
   11      C       3.1389033370     1.9030829430     0.7198839821
   12      C      -0.3662664658     1.4036030154    -0.0817880484
   13      C      -1.4122004418     0.4901417629    -0.0872185533
   14      C      -2.8080249438     1.0284217099    -0.1601224799
   15      O      -3.6461504328     0.6359538241    -0.9206065786
   16      O      -3.0688667390     2.0404725325     0.6886943085
   17      H      -2.9552775960    -3.7673778825     0.5089577030
   18      H      -1.2154434555    -3.4500436350     0.9710549890
   19      H      -3.1658523916    -1.5415670183    -0.4239138007
   20      H       0.4368218152    -2.3359584507    -0.0091329454
   21      H       2.9655009440     0.2595704562    -1.5992770979
   22      H       1.7656561295     2.9714071075    -0.4393443894
   23      H       3.3912905861     1.0018865575     1.2539629621
   24      H       3.8514243743     2.7073812445     0.7788049599
   25      H      -0.5825417220     2.4639804620    -0.1196253439
   26      H      -2.3235014109     2.2411112803     1.2706621787
 ----------------------------------------------------------------

    9    -764.1555365870      7.83e-06  Convergence criterion met
 Total energy in the final basis set =     -764.1555365870

                    Orbital Energies (a.u.)
 --------------------------------------------------------------

 Alpha MOs
 -- Occupied --
-19.2080 -19.2006 -19.1468 -19.1433 -10.3335 -10.3296 -10.2331 -10.2309
-10.2290 -10.2286 -10.2261 -10.2191 -10.2176 -10.2093 -10.1995 -10.1947
 -1.1180  -1.1123  -1.0357  -1.0312  -0.9037  -0.8389  -0.8005  -0.7918
 -0.7440  -0.6904  -0.6589  -0.6413  -0.6271  -0.6108  -0.5923  -0.5551
 -0.5440  -0.5140  -0.4929  -0.4694  -0.4646  -0.4617  -0.4595  -0.4524
 -0.4456  -0.4412  -0.4276  -0.4131  -0.4046  -0.3879  -0.3862  -0.3760
 -0.3661  -0.3393  -0.3277  -0.3232  -0.2958  -0.2912  -0.2867  -0.2712
 -0.2411

          Ground-State Mulliken Net Atomic Charges

     Atom                 Charge (a.u.)
  ----------------------------------------
      1 C                    -0.339088
      2 C                    -0.136228
      3 C                     0.134221
      4 C                    -0.233295
      5 C                     0.010104
      6 C                     0.511745
      7 O                    -0.437245
      8 O                    -0.554609
      9 C                     0.136174
     10 C                    -0.184065
     11 C                    -0.326629
     12 C                    -0.273075
     13 C                     0.001328
     14 C                     0.542220
     15 O                    -0.430907
     16 O                    -0.559307
     17 H                     0.156987
     18 H                     0.155303
     19 H                     0.185105
     20 H                     0.168875
     21 H                     0.417315
     22 H                     0.146279
     23 H                     0.183386
     24 H                     0.161563
     25 H                     0.146797
     26 H                     0.417044
  ----------------------------------------
  Sum of atomic charges =     0.000000

                    Cartesian Multipole Moments
 -----------------------------------------------------------------
    Charge (ESU x 10^10)
                -0.0000
    Dipole Moment (Debye)
         X       1.1147      Y       2.9341      Z       0.6062
       Tot       3.1967
    Quadrupole Moments (Debye-Ang)
        XX    -113.4993     XY      16.7062     YY     -83.6494
        XZ      -7.7888     YZ       1.9084     ZZ     -90.0283

 Total job time:  47.93s(wall), 47.78s(cpu)
        *  Thank you very much for using Q-Chem.  Have a nice day.  *
