 Q-Chem 5.2, Q-Chem, Inc., Pleasanton, CA (2019)
 Q-Chem 5.2.1 for Intel X86 EM64T Linux

User input:
--------------------------------------------------------------
$molecule
0 1
C         3.44741164180000   -1.48909525320000    0.05100838320000
C         2.91746817320000   -0.27780560130000   -0.06295300320000
C         1.49984479610000    0.05151493330000   -0.02554929470000
C         0.46998082170000   -0.88997551160000    0.13211946580000
C        -0.84292318310000   -0.46008862200000    0.13627242050000
C        -1.93176698420000   -1.42528593900000    0.24471558670000
C        -3.11948093070000   -1.32737516600000   -0.33973248480000
C        -1.02613099440000    0.94745213850000    0.04428569190000
N        -2.25399450970000    1.53786300300000    0.07464866080000
N         0.00419165700000    1.77662220560000   -0.10715339290000
N         1.22076418520000    1.34431366270000   -0.16162091010000
H         4.51261922250000   -1.63837940370000    0.01152331240000
H         2.85409295950000   -2.37790353760000    0.18679529100000
H         3.55028807560000    0.58844042820000   -0.19845221600000
H         0.69130131330000   -1.94312552730000    0.22123097730000
H        -1.69207850630000   -2.30856162050000    0.82556600190000
H        -3.37897951880000   -0.50417945510000   -0.98361743630000
H        -3.86029837150000   -2.10140884000000   -0.22989980760000
H        -3.00176140430000    1.04561842080000    0.53550276290000
H        -2.22996362730000    2.53951675340000    0.18207699210000
$end

$rem
BASIS = 6-31G*
GUI = 2
METHOD = B3LYP
PRINT_ORBITALS false
MOLDEN_FORMAT false
--------------------------------------------------------------

             Standard Nuclear Orientation (Angstroms)
    I     Atom           X                Y                Z
 ----------------------------------------------------------------
    1      C       3.5808781548    -1.1267697582     0.0037292947
    2      C       2.9427715359     0.0340669102    -0.0758198761
    3      C       1.5012460532     0.2320862312    -0.0278644563
    4      C       0.5616561672    -0.8030740199     0.1044140464
    5      C      -0.7848281592    -0.4945077777     0.1218422960
    6      C      -1.7811740218    -1.5572593320     0.2043084109
    7      C      -2.9749075164    -1.5514625894    -0.3760339261
    8      C      -1.0953709048     0.8925797927     0.0694120768
    9      N      -2.3716464986     1.3679418721     0.1174455347
   10      N      -0.1451064670     1.8157962630    -0.0597792917
   11      N       1.1054886806     1.4974649665    -0.1274776330
   12      H       4.6550947453    -1.1775217139    -0.0409358387
   13      H       3.0711697814    -2.0692238069     0.1151880303
   14      H       3.4938669174     0.9576409459    -0.1876596279
   15      H       0.8779737663    -1.8338311860     0.1638397826
   16      H      -1.4602663531    -2.4308874273     0.7600114971
   17      H      -3.3103098583    -0.7376931454    -0.9964072714
   18      H      -3.6420142615    -2.3923392230    -0.2871694010
   19      H      -3.0700268966     0.7972082185     0.5650776126
   20      H      -2.4382656992     2.3642688858     0.2528077504
 ----------------------------------------------------------------

    9    -474.4493572934      2.51e-06  Convergence criterion met
 Total energy in the final basis set =     -474.4493572934

                    Orbital Energies (a.u.)
 --------------------------------------------------------------

 Alpha MOs
 -- Occupied --
-14.3537 -14.3505 -14.3451 -10.2643 -10.2172 -10.2172 -10.2113 -10.2092
-10.1984 -10.1862 -10.1796  -1.0246  -0.9351  -0.8427  -0.8188  -0.7704
 -0.7520  -0.6627  -0.6571  -0.6068  -0.5658  -0.5453  -0.5252  -0.4951
 -0.4895  -0.4656  -0.4390  -0.4363  -0.4224  -0.4105  -0.3829  -0.3583
 -0.3547  -0.3309  -0.3125  -0.2909  -0.2580  -0.2152  -0.2116

          Ground-State Mulliken Net Atomic Charges

     Atom                 Charge (a.u.)
  ----------------------------------------
      1 C                    -0.358570
      2 C                    -0.082410
      3 C                     0.303331
      4 C                    -0.229407
      5 C                     0.165872
      6 C                    -0.137124
      7 C                    -0.359904
      8 C                     0.439081
      9 N                    -0.780633
     10 N                    -0.344512
     11 N                    -0.333173
     12 H                     0.147622
     13 H                     0.135908
     14 H                     0.147438
     15 H                     0.142172
     16 H                     0.144845
     17 H                     0.172313
     18 H                     0.153037
     19 H                     0.331736
     20 H                     0.342377
  ----------------------------------------
  Sum of atomic charges =     0.000000

                    Cartesian Multipole Moments
 -----------------------------------------------------------------
    Charge (ESU x 10^10)
                 0.0000
    Dipole Moment (Debye)
         X      -2.7741      Y      -2.9401      Z       1.1726
       Tot       4.2089
    Quadrupole Moments (Debye-Ang)
        XX     -53.2819     XY      -4.4379     YY     -64.5718
        XZ      -2.0370     YZ       0.7098     ZZ     -66.0882

 Total job time:  22.27s(wall), 21.99s(cpu)
        *  Thank you very much for using Q-Chem.  Have a nice day.  *
