 Q-Chem 5.2, Q-Chem, Inc., Pleasanton, CA (2019)
 Q-Chem 5.2.1 for Intel X86 EM64T Linux

User input:
--------------------------------------------------------------
$molecule
0 1
C         0.78295985960000    3.65498192260000    0.54054202170000
C         1.28254213710000    2.57747837560000   -0.05075539510000
C         0.64999506650000    1.26228052100000   -0.02467244400000
C        -0.73809238470000    1.15815879020000   -0.03406074510000
C        -1.39338929390000   -0.06645108990000   -0.02926648600000
C        -2.87747894370000   -0.08563400830000    0.01538640590000
O        -3.55897166000000   -1.00785514380000    0.39084883560000
O        -3.40571224400000    1.07483619030000   -0.40973999920000
C        -4.82214507250000    1.15356381900000   -0.38161971780000
C        -0.64969623300000   -1.26136241830000   -0.02503535880000
C        -1.28172715400000   -2.57683531070000   -0.05159120310000
C        -0.78376403990000   -3.65286998390000    0.54366107150000
C         0.73833529950000   -1.15727875410000   -0.03375094290000
C         1.39366543370000    0.06730567250000   -0.02871978650000
C         2.87779819510000    0.08538190510000    0.01618469460000
O         3.56022717620000    1.00587236620000    0.39409985970000
O         3.40470851960000   -1.07467431230000   -0.41182741590000
C         4.82095521130000   -1.15598564180000   -0.38320616530000
H         1.28510080970000    4.60535754340000    0.49020520640000
H        -0.12524680500000    3.62559287960000    1.11971165860000
H         2.22815709240000    2.64130937790000   -0.56865449940000
H        -1.32926957210000    2.05991810390000   -0.05419888790000
H        -5.07811513600000    2.14897529980000   -0.73521161920000
H        -5.19135209130000    0.99817860150000    0.63439092060000
H        -5.25831935980000    0.39202673530000   -1.03162249930000
H        -2.22503821200000   -2.64208085710000   -0.57349764230000
H         0.12195714770000   -3.62145611520000    1.12662494510000
H        -1.28481045910000   -4.60379531540000    0.49297050820000
H         1.32937007670000   -2.05913777140000   -0.05351707900000
H         5.07497511050000   -2.15321932390000   -0.73311174730000
H         5.19036760640000   -0.99748977640000    0.63224159310000
H         5.25872638980000   -0.39785272240000   -1.03611942840000
$end

$rem
BASIS = 6-31G*
GUI = 2
METHOD = B3LYP
PRINT_ORBITALS false
MOLDEN_FORMAT false
--------------------------------------------------------------

             Standard Nuclear Orientation (Angstroms)
    I     Atom           X                Y                Z
 ----------------------------------------------------------------
    1      C      -0.7227743883    -3.6673663554     0.5417104341
    2      C      -1.2400088544    -2.5982299975    -0.0495973843
    3      C      -0.6291687668    -1.2728104884    -0.0235392568
    4      C       0.7570192495    -1.1458829187    -0.0329425843
    5      C       1.3920951573     0.0893345587    -0.0281720863
    6      C       2.8756693001     0.1329138383     0.0164660464
    7      O       3.5419122526     1.0662194088     0.3919087470
    8      O       3.4229051983    -1.0187215118    -0.4086490601
    9      C       4.8404411472    -1.0741520570    -0.3805414891
   10      C       0.6288583974     1.2718582082    -0.0239506427
   11      C       1.2391773820     2.5975434777    -0.0505313094
   12      C       0.7235973131     3.6652547921     0.5447105684
   13      C      -0.7572745061     1.1449693596    -0.0326512015
   14      C      -1.3923839593    -0.0902230730    -0.0275962840
   15      C      -2.8760185484    -0.1326952410     0.0173229409
   16      O      -3.5432189138    -1.0642749612     0.3952578197
   17      O      -3.4219329718     1.0185357011    -0.4107004750
   18      C      -4.8393247444     1.0765534715    -0.3820665525
   19      H      -1.2092238581    -4.6258694162     0.4913919964
   20      H       0.1848319014    -3.6230421361     1.1208707886
   21      H      -2.1844515725    -2.6776056322    -0.5674863527
   22      H       1.3629412007    -2.0378017481    -0.0530737114
   23      H       5.1127377331    -2.0652259559    -0.7341217747
   24      H       5.2070534290    -0.9127035379     0.6354633418
   25      H       5.2640306872    -0.3055565408    -1.0305593265
   26      H       2.1812833527     2.6782806807    -0.5724478820
   27      H      -0.1814794756     3.6189635446     1.1276837286
   28      H       1.2089424002     4.6242880468     0.4940016304
   29      H      -1.3630560857     2.0369896483    -0.0524243561
   30      H      -5.1097080887     2.0694712992    -0.7319837951
   31      H      -5.2060718818     0.9120204757     0.6333870592
   32      H      -5.2645793371     0.3113167256    -1.0349647922
 ----------------------------------------------------------------

    9    -842.7908299351      5.39e-06  Convergence criterion met
 Total energy in the final basis set =     -842.7908299351

                    Orbital Energies (a.u.)
 --------------------------------------------------------------

 Alpha MOs
 -- Occupied --
-19.1967 -19.1966 -19.1389 -19.1389 -10.3190 -10.3189 -10.2425 -10.2425
-10.2129 -10.2129 -10.2111 -10.2110 -10.1999 -10.1999 -10.1885 -10.1884
-10.1799 -10.1798  -1.1141  -1.1141  -1.0222  -1.0221  -0.8849  -0.8181
 -0.7957  -0.7747  -0.7429  -0.7218  -0.7199  -0.6532  -0.6423  -0.5939
 -0.5825  -0.5678  -0.5547  -0.5277  -0.5215  -0.5003  -0.4899  -0.4865
 -0.4736  -0.4703  -0.4546  -0.4502  -0.4456  -0.4433  -0.4204  -0.4144
 -0.4124  -0.4020  -0.4019  -0.3745  -0.3678  -0.3657  -0.3594  -0.3588
 -0.3457  -0.3149  -0.3063  -0.3061  -0.2824  -0.2785  -0.2657  -0.2602
 -0.2234

          Ground-State Mulliken Net Atomic Charges

     Atom                 Charge (a.u.)
  ----------------------------------------
      1 C                    -0.342610
      2 C                    -0.095405
      3 C                     0.117641
      4 C                    -0.249603
      5 C                     0.035465
      6 C                     0.570895
      7 O                    -0.482466
      8 O                    -0.451735
      9 C                    -0.217774
     10 C                     0.117255
     11 C                    -0.095222
     12 C                    -0.342550
     13 C                    -0.249327
     14 C                     0.035350
     15 C                     0.570640
     16 O                    -0.482415
     17 O                    -0.451634
     18 C                    -0.217791
     19 H                     0.147247
     20 H                     0.142961
     21 H                     0.156623
     22 H                     0.162224
     23 H                     0.166205
     24 H                     0.171257
     25 H                     0.169173
     26 H                     0.156568
     27 H                     0.142937
     28 H                     0.147210
     29 H                     0.162241
     30 H                     0.166219
     31 H                     0.171369
     32 H                     0.169053
  ----------------------------------------
  Sum of atomic charges =     0.000000

                    Cartesian Multipole Moments
 -----------------------------------------------------------------
    Charge (ESU x 10^10)
                 0.0000
    Dipole Moment (Debye)
         X       0.0019      Y      -0.0002      Z      -1.1965
       Tot       1.1965
    Quadrupole Moments (Debye-Ang)
        XX     -90.0069     XY     -14.6814     YY     -98.4794
        XZ       0.0109     YZ       0.0054     ZZ    -104.4976

 Total job time:  63.34s(wall), 62.87s(cpu)
        *  Thank you very much for using Q-Chem.  Have a nice day.  *
