 Q-Chem 5.4, Q-Chem, Inc., Pleasanton, CA (2021)
 Q-Chem 5.4.2 for Intel X86 EM64T Linux

User input:
--------------------------------------------------------------
$molecule
0 1
C           -4.05229215930000        1.39686401550000       -0.02179917540000
C           -2.83273724860000        1.43533729220000        0.49708581550000
C           -1.78106487520000        0.44836670600000        0.25738774690000
C           -2.08243168490000       -0.87805010700000       -0.03942436020000
C           -1.06427067360000       -1.79596809980000       -0.22056199810000
Cl          -1.45930674100000       -3.43859510640000       -0.58451194280000
C            0.26423492330000       -1.43091376590000       -0.10182512150000
C            0.59399583650000       -0.10821888900000        0.19127615690000
C            1.96328066420000        0.35667650580000        0.34377836300000
C            3.08678763850000       -0.29854746230000        0.09717948850000
F            3.22902785850000       -1.53761582500000       -0.35627399320000
F            4.29257195190000        0.23672789240000        0.27161098400000
C           -0.43671010330000        0.83110732140000        0.36717840830000
O           -0.11015502240000        2.13467304440000        0.66475447140000
C           -0.20102174330000        3.03526858370000       -0.43445437400000
C            0.09527091060000        4.43457841780000        0.07603906020000
H           -4.78191159380000        2.15578450850000        0.20204304230000
H           -4.36581888400000        0.62014817620000       -0.69884952140000
H           -2.54387577900000        2.25101962430000        1.14735063220000
H           -3.11080208300000       -1.19468784010000       -0.10325866660000
H            1.03247185300000       -2.17414544710000       -0.23150451060000
H            2.07385318910000        1.36882380150000        0.70534855510000
H           -1.20555691370000        2.98915660180000       -0.87683151630000
H            0.52711672390000        2.74380708350000       -1.20599479350000
H           -0.62769424130000        4.71426285430000        0.83733234930000
H            0.04249093220000        5.14404661670000       -0.74458671090000
H            1.08878031420000        4.46950698270000        0.51458101700000
$end

$rem
BASIS = 6-31G*
GUI = 2
METHOD = B3LYP
PRINT_ORBITALS false
MOLDEN_FORMAT false
$end
--------------------------------------------------------------

             Standard Nuclear Orientation (Angstroms)
    I     Atom           X                Y                Z
 ----------------------------------------------------------------
    1      C      -4.1836976887    -0.1058468402     0.0603845760
    2      C      -3.0272248182    -0.5351468917    -0.4257306086
    3      C      -1.7393166766     0.1365853219    -0.2594497162
    4      C      -1.6543767858     1.5168653654    -0.0984740681
    5      C      -0.4183794016     2.1262633385     0.0154588364
    6      Cl     -0.3341599607     3.8413469313     0.2107327343
    7      C       0.7534710557     1.3940530534    -0.0386229323
    8      C       0.6968508671     0.0097445865    -0.1956470690
    9      C       1.8796039042    -0.8325529606    -0.2728201584
   10      C       3.1433747010    -0.4970480968    -0.0661386785
   11      F       3.6305292430     0.6910824349     0.2687777881
   12      F       4.1493118718    -1.3629468810    -0.1619069736
   13      C      -0.5571638103    -0.6160689886    -0.3025798704
   14      O      -0.6115188832    -1.9816540179    -0.4659701460
   15      C      -0.9447119660    -2.7078505177     0.7126774627
   16      C      -1.0563106687    -4.1773878235     0.3459804058
   17      H      -5.0983936789    -0.6483954982    -0.1050916200
   18      H      -4.2623747211     0.7903966254     0.6524498158
   19      H      -2.9829928200    -1.4590553064    -0.9879224965
   20      H      -2.5520978533     2.1134084030    -0.0878327483
   21      H       1.7002422994     1.9015248475     0.0355029501
   22      H       1.6993618748    -1.8656988775    -0.5326735025
   23      H      -1.8931456920    -2.3389915434     1.1265992957
   24      H      -0.1592574217    -2.5572799084     1.4681903367
   25      H      -1.8334304227    -4.3171498502    -0.4003579428
   26      H      -1.3010274349    -4.7591992234     1.2298167633
   27      H      -0.1152960392    -4.5321026214    -0.0654425723
 ----------------------------------------------------------------

    9   -1198.9478711289      4.90e-06  Convergence criterion met
 Total energy in the final basis set =    -1198.9478711289

                    Orbital Energies (a.u.)
 --------------------------------------------------------------

 Alpha MOs
 -- Occupied --
******** -24.7481 -24.7376 -19.1757 -10.3610 -10.2517 -10.2497 -10.2458
-10.2170 -10.2089 -10.2044 -10.2016 -10.2014 -10.1989 -10.1897 -10.1859
 -9.4649  -7.2287  -7.2193  -7.2190  -1.2895  -1.2283  -1.0670  -0.9003
 -0.8524  -0.8240  -0.7822  -0.7763  -0.7386  -0.7200  -0.6616  -0.6422
 -0.6277  -0.5990  -0.5753  -0.5733  -0.5387  -0.5285  -0.5228  -0.5020
 -0.4800  -0.4719  -0.4650  -0.4494  -0.4453  -0.4445  -0.4355  -0.4275
 -0.4211  -0.4035  -0.3981  -0.3905  -0.3891  -0.3733  -0.3632  -0.3489
 -0.3388  -0.3219  -0.3122  -0.2853  -0.2753  -0.2331  -0.2254

          Ground-State Mulliken Net Atomic Charges

     Atom                 Charge (a.u.)
  ----------------------------------------
      1 C                    -0.345137
      2 C                    -0.126372
      3 C                     0.151916
      4 C                    -0.208820
      5 C                    -0.058710
      6 Cl                   -0.016342
      7 C                    -0.221470
      8 C                     0.167637
      9 C                    -0.299131
     10 C                     0.550622
     11 F                    -0.233241
     12 F                    -0.245666
     13 C                     0.204561
     14 O                    -0.534052
     15 C                    -0.038575
     16 C                    -0.457802
     17 H                     0.149170
     18 H                     0.148628
     19 H                     0.153700
     20 H                     0.152027
     21 H                     0.161413
     22 H                     0.180928
     23 H                     0.148414
     24 H                     0.138448
     25 H                     0.162089
     26 H                     0.153616
     27 H                     0.162149
  ----------------------------------------
  Sum of atomic charges =     0.000000

                    Cartesian Multipole Moments
 -----------------------------------------------------------------
    Charge (ESU x 10^10)
                 0.0000
    Dipole Moment (Debye)
         X      -1.5188      Y      -2.3575      Z       0.8266
       Tot       2.9236
    Quadrupole Moments (Debye-Ang)
        XX     -94.4261     XY       2.1925     YY     -97.5840
        XZ      -1.1542     YZ      -2.1557     ZZ     -99.2979

 Total job time:  69.77s(wall), 68.29s(cpu)
        *  Thank you very much for using Q-Chem.  Have a nice day.  *
