 Q-Chem 5.2, Q-Chem, Inc., Pleasanton, CA (2019)
 Q-Chem 5.2.1 for Intel X86 EM64T Linux

User input:
--------------------------------------------------------------
$molecule
0 1
C         3.54723606440000    0.96502911160000   -0.44313634860000
C         2.49155057070000    1.55870336510000    0.10688787370000
C         1.14332387650000    1.03401401760000    0.11806023510000
S        -0.16943608740000    2.16056635390000    0.08924820700000
C        -1.34227321630000    0.88620093830000   -0.01039083300000
C        -2.74514763890000    1.19520644460000   -0.08193745170000
C        -3.23945959940000    2.42973484270000   -0.04142068150000
C        -0.73526952840000   -0.35703757740000   -0.04295973370000
C        -1.56915799480000   -1.60407425880000   -0.10652430630000
O        -2.66410862950000   -1.64588213090000    0.39443559940000
O        -1.08776087680000   -2.64058717190000   -0.77411516370000
C         0.68678171650000   -0.26954262320000    0.04967792760000
C         1.59844858090000   -1.43549726700000    0.12790073470000
O         1.52438960010000   -2.38167842320000   -0.62078905730000
O         2.52206802110000   -1.41062258220000    1.09125811670000
H         4.51477316590000    1.43447483580000   -0.43239088130000
H         3.48571148350000    0.00749378230000   -0.93248781750000
H         2.58917056560000    2.54950670580000    0.53178711090000
H        -3.39785453060000    0.33779972630000   -0.15516557330000
H        -2.60474976110000    3.29755432080000    0.05112482990000
H        -4.29778366570000    2.60992450910000   -0.09718563810000
H        -0.13046872450000   -2.58923829960000   -0.99955989820000
H         2.50842791740000   -0.59677013310000    1.61300110070000
$end

$rem
BASIS = 6-31G*
GUI = 2
METHOD = B3LYP
PRINT_ORBITALS false
MOLDEN_FORMAT false
--------------------------------------------------------------

             Standard Nuclear Orientation (Angstroms)
    I     Atom           X                Y                Z
 ----------------------------------------------------------------
    1      C       3.2225015478     1.6878162265    -0.5820037494
    2      C       2.0689710220     2.0542650924    -0.0301612169
    3      C       0.8757087472     1.2394117114     0.0424890625
    4      S      -0.6590732773     2.0368272101    -0.0006581489
    5      C      -1.5130181589     0.5268004622    -0.0095711585
    6      C      -2.9504138616     0.5063919630    -0.0557994401
    7      C      -3.7116686132     1.5975081818    -0.0574991976
    8      C      -0.6399240648    -0.5468920379    -0.0026910826
    9      C      -1.1694460188    -1.9518292926     0.0137017414
   10      O      -2.2175755773    -2.2149145324     0.5464645431
   11      O      -0.4764049856    -2.8849186625    -0.6194002339
   12      C       0.7263648043    -0.1353792823     0.0460821127
   13      C       1.8804087028    -1.0593705963     0.1515725975
   14      O       2.0107094030    -2.0343502070    -0.5510769624
   15      O       2.7903768045    -0.7775570141     1.0866064067
   16      H       4.0580273818     2.3639113604    -0.6196168632
   17      H       3.3719816137     0.7177265140    -1.0255189135
   18      H       1.9459812279     3.0616273527     0.3464753083
   19      H      -3.3922625819    -0.4790261690    -0.0717912600
   20      H      -3.2893829317     2.5899595422    -0.0221863461
   21      H      -4.7840347962     1.5305400619    -0.0917616565
   22      H       0.4401895411    -2.6297797453    -0.8736223933
   23      H       2.6009231844     0.0373944812     1.5710844648
 ----------------------------------------------------------------

    9   -1084.9251359420      8.01e-06  Convergence criterion met
 Total energy in the final basis set =    -1084.9251359420

                    Orbital Energies (a.u.)
 --------------------------------------------------------------

 Alpha MOs
 -- Occupied --
-88.9384 -19.2232 -19.1755 -19.1731 -19.1252 -10.3580 -10.3200 -10.2612
-10.2525 -10.2399 -10.2333 -10.2321 -10.2188 -10.2066 -10.1995  -8.0003
 -5.9642  -5.9606  -5.9575  -1.1395  -1.0961  -1.0573  -1.0106  -0.9270
 -0.8387  -0.8065  -0.7816  -0.7454  -0.6726  -0.6550  -0.6470  -0.6160
 -0.6059  -0.5723  -0.5481  -0.5136  -0.4957  -0.4872  -0.4809  -0.4693
 -0.4543  -0.4399  -0.4356  -0.4334  -0.4250  -0.4028  -0.4001  -0.3915
 -0.3776  -0.3646  -0.3502  -0.3401  -0.3140  -0.3047  -0.2968  -0.2852
 -0.2667  -0.2317

          Ground-State Mulliken Net Atomic Charges

     Atom                 Charge (a.u.)
  ----------------------------------------
      1 C                    -0.330790
      2 C                    -0.144365
      3 C                    -0.195952
      4 S                     0.295525
      5 C                    -0.208544
      6 C                    -0.046340
      7 C                    -0.373263
      8 C                     0.034465
      9 C                     0.559390
     10 O                    -0.459544
     11 O                    -0.589295
     12 C                     0.010183
     13 C                     0.561741
     14 O                    -0.472823
     15 O                    -0.547436
     16 H                     0.166805
     17 H                     0.182821
     18 H                     0.156504
     19 H                     0.200562
     20 H                     0.156766
     21 H                     0.162550
     22 H                     0.452032
     23 H                     0.429006
  ----------------------------------------
  Sum of atomic charges =     0.000000

                    Cartesian Multipole Moments
 -----------------------------------------------------------------
    Charge (ESU x 10^10)
                -0.0000
    Dipole Moment (Debye)
         X       2.2141      Y       6.2370      Z       0.4193
       Tot       6.6316
    Quadrupole Moments (Debye-Ang)
        XX     -88.7256     XY      -0.0143     YY     -99.9658
        XZ       3.6844     YZ       2.1491     ZZ     -91.7022

 Total job time:  44.00s(wall), 43.87s(cpu)
        *  Thank you very much for using Q-Chem.  Have a nice day.  *
