 Q-Chem 5.4, Q-Chem, Inc., Pleasanton, CA (2021)
 Q-Chem 5.4.2 for Intel X86 EM64T Linux

User input:
--------------------------------------------------------------
$molecule
0 1
C            1.52083865530000        3.07265430090000       -0.04407526100000
C            1.16690859680000        1.89974219550000       -0.55037670000000
C           -0.08259534790000        1.20371665580000       -0.25486162040000
C           -1.25319355740000        1.92103162340000       -0.01563420290000
C           -2.46382715580000        1.28808465780000        0.18222344220000
C           -2.56549604720000       -0.09662109360000        0.13296163150000
C           -3.86139296240000       -0.81961029280000        0.31951231100000
C           -1.39509254150000       -0.80176649450000       -0.10595236700000
F           -1.46004644320000       -2.15394707580000       -0.14977526030000
C           -0.15185087350000       -0.19930485170000       -0.28269118370000
C            1.00494605760000       -1.07090003110000       -0.48452205200000
C            2.19026207840000       -0.92857377950000        0.08325304790000
F            2.56326596960000        0.01220368170000        0.94139111180000
F            3.20794944640000       -1.76190255220000       -0.11880000790000
H            2.44960030960000        3.54398958530000       -0.31377647790000
H            0.91359242200000        3.59172029620000        0.67797694470000
H            1.82916289720000        1.39333702370000       -1.24148027640000
H           -1.21055890050000        2.99893608260000       -0.01020001040000
H           -3.35222575280000        1.87379841480000        0.36538125480000
H           -4.65908678470000       -0.12363229290000        0.56269421880000
H           -3.77219210900000       -1.55419877320000        1.11860423530000
H           -4.12630772760000       -1.35774714050000       -0.59015537350000
H            0.86084626630000       -1.95124190890000       -1.09414351110000
$end

$rem
BASIS = 6-31G*
GUI = 2
METHOD = B3LYP
PRINT_ORBITALS false
MOLDEN_FORMAT false
$end
--------------------------------------------------------------

             Standard Nuclear Orientation (Angstroms)
    I     Atom           X                Y                Z
 ----------------------------------------------------------------
    1      C      -1.7114167074     2.9487201861     0.0263422650
    2      C      -1.3182841839     1.7889818756     0.5340669056
    3      C      -0.0393219474     1.1427276171     0.2518403073
    4      C       1.1053280995     1.9055311682     0.0282833777
    5      C       2.3418507659     1.3205268734    -0.1566081823
    6      C       2.4965485019    -0.0593329178    -0.1093972251
    7      C       3.8216222337    -0.7310396408    -0.2821775389
    8      C       1.3516248034    -0.8099676627     0.1138772821
    9      F       1.4684408320    -2.1587341067     0.1552883261
   10      C       0.0839528229    -0.2566296802     0.2771908226
   11      C      -1.0404823696    -1.1729569564     0.4631553802
   12      C      -2.2236268609    -1.0750668285    -0.1183822632
   13      F      -2.6226541997    -0.1470365714    -0.9786915657
   14      F      -3.2105533531    -1.9477671916     0.0695539894
   15      H      -2.6608821231     3.3829541365     0.2860540440
   16      H      -1.1162567179     3.4929555859    -0.6871907051
   17      H      -1.9685318855     1.2553534861     1.2160271523
   18      H       1.0209945607     2.9809852723     0.0248787131
   19      H       3.2089731123     1.9407364583    -0.3277758306
   20      H       4.5945486380    -0.0039945860    -0.5141872639
   21      H       3.7704323162    -1.4662804152    -1.0840039086
   22      H       4.0964264684    -1.2610663720     0.6293161214
   23      H      -0.8695748301    -2.0487669429     1.0723781437
 ----------------------------------------------------------------

    9    -724.0620440218      3.81e-06  Convergence criterion met
 Total energy in the final basis set =     -724.0620440218

                    Orbital Energies (a.u.)
 --------------------------------------------------------------

 Alpha MOs
 -- Occupied --
-24.7388 -24.7346 -24.7096 -10.3577 -10.2681 -10.2100 -10.2035 -10.2022
-10.2018 -10.1929 -10.1907 -10.1881 -10.1869 -10.1798  -1.2833  -1.2228
 -1.2199  -0.8787  -0.8190  -0.7975  -0.7531  -0.7422  -0.6911  -0.6489
 -0.6200  -0.6087  -0.5749  -0.5713  -0.5245  -0.5185  -0.5150  -0.5040
 -0.4773  -0.4668  -0.4512  -0.4401  -0.4382  -0.4325  -0.4252  -0.4183
 -0.4128  -0.4053  -0.3936  -0.3732  -0.3623  -0.3600  -0.3408  -0.2904
 -0.2855  -0.2318  -0.2235

          Ground-State Mulliken Net Atomic Charges

     Atom                 Charge (a.u.)
  ----------------------------------------
      1 C                    -0.339813
      2 C                    -0.126416
      3 C                     0.116529
      4 C                    -0.182420
      5 C                    -0.181144
      6 C                     0.106190
      7 C                    -0.521667
      8 C                     0.259613
      9 F                    -0.288787
     10 C                     0.026236
     11 C                    -0.325757
     12 C                     0.567288
     13 F                    -0.227898
     14 F                    -0.245140
     15 H                     0.144345
     16 H                     0.143781
     17 H                     0.137950
     18 H                     0.131688
     19 H                     0.129232
     20 H                     0.156092
     21 H                     0.172266
     22 H                     0.171579
     23 H                     0.176252
  ----------------------------------------
  Sum of atomic charges =     0.000000

                    Cartesian Multipole Moments
 -----------------------------------------------------------------
    Charge (ESU x 10^10)
                 0.0000
    Dipole Moment (Debye)
         X       1.2520      Y       0.9092      Z       0.3099
       Tot       1.5781
    Quadrupole Moments (Debye-Ang)
        XX     -73.9337     XY      -0.1017     YY     -76.1482
        XZ      -2.4420     YZ      -1.4353     ZZ     -78.9848

 Total job time:  62.59s(wall), 57.31s(cpu)
        *  Thank you very much for using Q-Chem.  Have a nice day.  *
