 Q-Chem 5.2, Q-Chem, Inc., Pleasanton, CA (2019)
 Q-Chem 5.2.1 for Intel X86 EM64T Linux

User input:
--------------------------------------------------------------
$molecule
0 1
C        -3.89498372400000   -0.33041916160000    0.01082904950000
C        -2.95794394140000    0.60929655150000    0.05900912140000
C        -1.51539728460000    0.41155191270000    0.01625669300000
C        -0.68064418180000    1.53031568090000   -0.04670260210000
C         0.68781609980000    1.38163260820000   -0.10190125360000
C         1.28943857810000    0.12530752770000   -0.08975333930000
C         2.73803243540000   -0.01607880910000   -0.19674916570000
C         3.62934388280000    0.86219461100000    0.24656280350000
C         0.45757003970000   -1.00922452340000   -0.00225097900000
N         0.98936883350000   -2.28661710970000   -0.00494976160000
C        -0.92262766090000   -0.84641684090000    0.04350106460000
H        -4.94156092920000   -0.08002896100000    0.04568395280000
H        -3.66639156780000   -1.37925844230000   -0.07028661780000
H        -3.26374818620000    1.64663831030000    0.12811806180000
H        -1.11512575450000    2.51933133240000   -0.06586036440000
H         1.31522179790000    2.25674272340000   -0.18221356990000
H         3.08570125590000   -0.91418727330000   -0.69337648010000
H         3.34001247900000    1.76033257730000    0.76566635880000
H         4.68709022350000    0.70841619260000    0.11622916860000
H         1.92433785930000   -2.38604147830000    0.35401225110000
H         0.35897406970000   -3.01528896630000    0.29003722620000
H        -1.53816339870000   -1.73165211380000    0.11007147140000
$end

$rem
BASIS = 6-31G*
GUI = 2
METHOD = B3LYP
PRINT_ORBITALS false
MOLDEN_FORMAT false
--------------------------------------------------------------

             Standard Nuclear Orientation (Angstroms)
    I     Atom           X                Y                Z
 ----------------------------------------------------------------
    1      C       3.8981246322    -0.3025518663    -0.0104486433
    2      C       2.9552879284     0.6313830271    -0.0579361140
    3      C       1.5140337690     0.4248303482    -0.0132817967
    4      C       0.6725236235     1.5384936304     0.0501512656
    5      C      -0.6949305774     1.3814617001     0.1071343419
    6      C      -1.2888621851     0.1214698768     0.0963762482
    7      C      -2.7364285639    -0.0287294543     0.2052528132
    8      C      -3.6336537221     0.8438404965    -0.2373920729
    9      C      -0.4501705481    -1.0079917162     0.0084117593
   10      N      -0.9741323152    -2.2886154040     0.0124238618
   11      C       0.9289461047    -0.8367586923    -0.0391465539
   12      H       4.9431044879    -0.0457753729    -0.0467377198
   13      H       3.6760615061    -1.3527293421     0.0714854738
   14      H       3.2546470069     1.6705422214    -0.1279540926
   15      H       1.1009634348     2.5301611557     0.0682637807
   16      H      -1.3275835165     2.2527546310     0.1877853124
   17      H      -3.0779715860    -0.9286938051     0.7027702932
   18      H      -3.3504751554     1.7434655088    -0.7573129376
   19      H      -4.6902752527     0.6836548191    -0.1056595057
   20      H      -1.9089213046    -2.3939486144    -0.3453197208
   21      H      -0.3396546256    -3.0135652831    -0.2829797434
   22      H       1.5498084436    -1.7182421895    -0.1060356583
 ----------------------------------------------------------------

    9    -442.3979393505      1.94e-06  Convergence criterion met
 Total energy in the final basis set =     -442.3979393505

                    Orbital Energies (a.u.)
 --------------------------------------------------------------

 Alpha MOs
 -- Occupied --
-14.3406 -10.2237 -10.1880 -10.1877 -10.1848 -10.1837 -10.1788 -10.1770
-10.1749 -10.1744 -10.1710  -0.9242  -0.8451  -0.8011  -0.7616  -0.7273
 -0.7085  -0.6379  -0.5994  -0.5736  -0.5562  -0.5185  -0.5045  -0.4749
 -0.4612  -0.4407  -0.4332  -0.4218  -0.4014  -0.3898  -0.3837  -0.3525
 -0.3419  -0.3363  -0.3215  -0.3003  -0.2623  -0.2171  -0.1937

          Ground-State Mulliken Net Atomic Charges

     Atom                 Charge (a.u.)
  ----------------------------------------
      1 C                    -0.351827
      2 C                    -0.118683
      3 C                     0.184240
      4 C                    -0.207886
      5 C                    -0.199656
      6 C                     0.140256
      7 C                    -0.147959
      8 C                    -0.340490
      9 C                     0.264350
     10 N                    -0.806940
     11 C                    -0.244647
     12 H                     0.141826
     13 H                     0.139184
     14 H                     0.125933
     15 H                     0.118675
     16 H                     0.126438
     17 H                     0.133407
     18 H                     0.143529
     19 H                     0.140028
     20 H                     0.326089
     21 H                     0.324278
     22 H                     0.109855
  ----------------------------------------
  Sum of atomic charges =     0.000000

                    Cartesian Multipole Moments
 -----------------------------------------------------------------
    Charge (ESU x 10^10)
                 0.0000
    Dipole Moment (Debye)
         X      -0.5135      Y      -1.2882      Z      -0.9644
       Tot       1.6891
    Quadrupole Moments (Debye-Ang)
        XX     -59.3555     XY       1.1337     YY     -55.3305
        XZ       0.9091     YZ       2.0771     ZZ     -69.9832

 Total job time:  24.18s(wall), 24.09s(cpu)
        *  Thank you very much for using Q-Chem.  Have a nice day.  *
