 Q-Chem 5.2, Q-Chem, Inc., Pleasanton, CA (2019)
 Q-Chem 5.2.1 for Intel X86 EM64T Linux

User input:
--------------------------------------------------------------
$molecule
0 1
C        -4.64732860720000   -0.44118348230000    0.40641986300000
C        -3.42553648330000   -0.96065338650000    0.42768539910000
C        -2.19097177950000   -0.25293433680000    0.12596196230000
C        -2.14403608310000    1.01349164500000   -0.46896001930000
N        -1.03424598650000    1.68224119330000   -0.68185635440000
C         0.14044811430000    1.14812111950000   -0.35709632420000
C         1.29454773150000    2.02789811670000   -0.50580948980000
C         2.36285991570000    2.01009115480000    0.27960069410000
C         0.22146002070000   -0.16880407260000    0.12922599950000
C         1.50864265170000   -0.88350380100000    0.33551608140000
O         1.80077163630000   -1.49665368010000    1.33095853570000
O         2.27809390070000   -0.81630618220000   -0.75930017660000
C         3.54327581720000   -1.45630401600000   -0.68810957740000
C        -0.95805140480000   -0.84842929250000    0.39446709610000
H        -5.51094516870000   -1.03547199610000    0.65015915130000
H        -4.83571056200000    0.58879899130000    0.15686371400000
H        -3.29304597540000   -1.99835526960000    0.70868269500000
H        -3.04751902170000    1.51340823130000   -0.79065671160000
H         1.18492125780000    2.77846784300000   -1.27592008440000
H         2.46321323000000    1.31466556400000    1.09745689780000
H         3.17211144980000    2.70742052290000    0.14544300230000
H         3.85505894010000   -1.64155920300000   -1.71299353450000
H         3.46403292960000   -2.39218620790000   -0.13111168440000
H         4.26142072720000   -0.80271849340000   -0.18793964290000
H        -0.90939566880000   -1.84923669140000    0.80095330800000
$end

$rem
BASIS = 6-31G*
GUI = 2
METHOD = B3LYP
PRINT_ORBITALS false
MOLDEN_FORMAT false
--------------------------------------------------------------

             Standard Nuclear Orientation (Angstroms)
    I     Atom           X                Y                Z
 ----------------------------------------------------------------
    1      C       4.6553396597     0.5675816142     0.0369523240
    2      C       3.4246872438     1.0653868415     0.0093518642
    3      C       2.1926416473     0.2946740688    -0.0548257315
    4      C       2.1437613897    -1.0740184198    -0.3451040173
    5      N       1.0400518086    -1.7853335629    -0.3387169803
    6      C      -0.1279743368    -1.2040138916    -0.0771029053
    7      C      -1.2676775550    -2.1067901286     0.0418119267
    8      C      -2.2933791597    -1.9228606294     0.8619237027
    9      C      -0.2137017641     0.1879065180     0.1033761097
   10      C      -1.5044231001     0.9170739438     0.2153748733
   11      O      -1.7579283936     1.7366397256     1.0616873411
   12      O      -2.3285713513     0.5954769850    -0.7908797861
   13      C      -3.6027013422     1.2215193474    -0.7946662689
   14      C       0.9621131485     0.9224099540     0.1415136977
   15      H       5.5166203967     1.2107528502     0.0912431769
   16      H       4.8540753412    -0.4901014861     0.0159638353
   17      H       3.2832244869     2.1383025882     0.0560262908
   18      H       3.0403946818    -1.6242061689    -0.5961596998
   19      H      -1.1813643206    -3.0110886011    -0.5440528221
   20      H      -2.3666533489    -1.0613562714     1.5061421783
   21      H      -3.0922491699    -2.6409901360     0.9343895420
   22      H      -3.9720889179     1.1664901621    -1.8156657465
   23      H      -3.5159297051     2.2600308314    -0.4685280378
   24      H      -4.2783003054     0.6906459049    -0.1202661359
   25      H       0.9117911737     1.9887062724     0.3138323881
 ----------------------------------------------------------------

    9    -630.9495979267      5.72e-06  Convergence criterion met
 Total energy in the final basis set =     -630.9495979267

                    Orbital Energies (a.u.)
 --------------------------------------------------------------

 Alpha MOs
 -- Occupied --
-19.1941 -19.1394 -14.3322 -10.3197 -10.2403 -10.2370 -10.2275 -10.2137
-10.2125 -10.2100 -10.2017 -10.1927 -10.1908 -10.1884  -1.1122  -1.0227
 -0.9590  -0.8354  -0.8196  -0.7814  -0.7450  -0.7276  -0.6685  -0.6390
 -0.6007  -0.5861  -0.5622  -0.5281  -0.5140  -0.5002  -0.4831  -0.4731
 -0.4687  -0.4557  -0.4298  -0.4246  -0.4183  -0.4147  -0.3987  -0.3879
 -0.3744  -0.3600  -0.3547  -0.3321  -0.3068  -0.2993  -0.2790  -0.2742
 -0.2543  -0.2279

          Ground-State Mulliken Net Atomic Charges

     Atom                 Charge (a.u.)
  ----------------------------------------
      1 C                    -0.346922
      2 C                    -0.115539
      3 C                     0.146572
      4 C                    -0.002288
      5 N                    -0.479597
      6 C                     0.255745
      7 C                    -0.075343
      8 C                    -0.350021
      9 C                     0.068262
     10 C                     0.500037
     11 O                    -0.479084
     12 O                    -0.421730
     13 C                    -0.225878
     14 C                    -0.188729
     15 H                     0.151168
     16 H                     0.150634
     17 H                     0.135700
     18 H                     0.143698
     19 H                     0.150556
     20 H                     0.163217
     21 H                     0.150891
     22 H                     0.167677
     23 H                     0.179055
     24 H                     0.162195
     25 H                     0.159725
  ----------------------------------------
  Sum of atomic charges =     0.000000

                    Cartesian Multipole Moments
 -----------------------------------------------------------------
    Charge (ESU x 10^10)
                 0.0000
    Dipole Moment (Debye)
         X      -0.1985      Y       0.5785      Z      -1.1167
       Tot       1.2732
    Quadrupole Moments (Debye-Ang)
        XX     -64.2271     XY       3.8409     YY     -81.4579
        XZ       2.7869     YZ      -3.7962     ZZ     -84.5069

 Total job time:  41.00s(wall), 40.68s(cpu)
        *  Thank you very much for using Q-Chem.  Have a nice day.  *
