 Q-Chem 5.2, Q-Chem, Inc., Pleasanton, CA (2019)
 Q-Chem 5.2.1 for Intel X86 EM64T Linux

User input:
--------------------------------------------------------------
$molecule
0 1
C         5.86740606140000   -0.92949688610000    0.50514848320000
C         5.02021473330000   -0.06926227020000   -0.04723247540000
C         3.56500031110000   -0.14321987370000   -0.03076338260000
C         2.86095706150000   -1.20445372750000    0.54161091630000
C         1.48198386720000   -1.21238023410000    0.52164200300000
C         0.75050171560000   -0.17509420460000   -0.04676517740000
C        -0.72369391040000   -0.24716564040000   -0.05194569020000
C        -1.35042700620000   -1.34292100540000   -0.63383693140000
C        -2.72458199430000   -1.46259535060000   -0.65074870980000
C        -3.52836806630000   -0.47854784270000   -0.07075108840000
C        -4.97651933190000   -0.63597796390000   -0.11352079730000
C        -5.88719234670000    0.25550978160000    0.25888784900000
C        -2.90507909470000    0.60729540780000    0.53522721250000
C        -1.51994945170000    0.73994109710000    0.55708824900000
N        -0.94632882830000    1.85397921890000    1.13536495520000
C         1.44591839060000    0.89221303690000   -0.64201102260000
N         0.77008448370000    1.95667109800000   -1.20183718970000
C         2.83773151240000    0.88580071870000   -0.62177316640000
H         6.93263360010000   -0.78669485610000    0.43991989930000
H         5.54280382010000   -1.80385522080000    1.04244244130000
H         5.41940404810000    0.79284824300000   -0.56914125880000
H         3.38939830100000   -2.02573618140000    0.99811383980000
H         0.94311644800000   -2.03635468120000    0.96820363050000
H        -0.73650124310000   -2.10649488460000   -1.09049080470000
H        -3.18394003540000   -2.32102418950000   -1.11878783740000
H        -5.31016322570000   -1.58871650790000   -0.50769065860000
H        -5.62900202390000    1.22659498220000    0.64534293350000
H        -6.94049661590000    0.04509489830000    0.18454541870000
H        -3.49694403560000    1.37075398880000    1.01815649850000
H        -1.50999429180000    2.34571410690000    1.80895397220000
H         0.03047654530000    1.78118283070000    1.36883250300000
H        -0.19714682710000    1.79880137190000   -1.43284101120000
H         1.28338736200000    2.51002183780000   -1.86775545570000
H         3.36317585530000    1.71000594060000   -1.08626767830000
$end

$rem
BASIS = 6-31G*
GUI = 2
METHOD = B3LYP
PRINT_ORBITALS false
MOLDEN_FORMAT false
--------------------------------------------------------------

             Standard Nuclear Orientation (Angstroms)
    I     Atom           X                Y                Z
 ----------------------------------------------------------------
    1      C       5.8809296181    -0.8556487372     0.4862907949
    2      C       5.0212406965     0.0096475871    -0.0381695880
    3      C       3.5673786759    -0.0882452100    -0.0285676045
    4      C       2.8792457432    -1.1800499466     0.5042944901
    5      C       1.5006326098    -1.2094587855     0.4800126823
    6      C       0.7538102755    -0.1648198744    -0.0539359239
    7      C      -0.7190096003    -0.2603756586    -0.0659600183
    8      C      -1.3265472517    -1.3450380438    -0.6876328600
    9      C      -2.6985417270    -1.4861412614    -0.7127511803
   10      C      -3.5195197173    -0.5360539622    -0.1010747531
   11      C      -4.9648282843    -0.7151705875    -0.1535719902
   12      C      -5.8906888794     0.1479705999     0.2470941917
   13      C      -2.9153224398     0.5378053054     0.5443137586
   14      C      -1.5325764195     0.6918736158     0.5748638948
   15      N      -0.9784314246     1.7940771290     1.1934075435
   16      C       1.4332737354     0.9337153519    -0.6094685326
   17      N       0.7416321487     2.0061011871    -1.1337283031
   18      C       2.8249564774     0.9489931829    -0.5853814378
   19      H       6.9438584631    -0.6935309352     0.4292207870
   20      H       5.5692460303    -1.7533839357     0.9917398670
   21      H       5.4076631011     0.8958057089    -0.5284520909
   22      H       3.4198242043    -2.0081962340     0.9333616014
   23      H       0.9741123037    -2.0571196682     0.8959173197
   24      H      -0.6992644165    -2.0821865881    -1.1688926027
   25      H      -3.1428371664    -2.3349445818    -1.2118553700
   26      H      -5.2820753848    -1.6587760554    -0.5817797187
   27      H      -5.6491638579     1.1089650813     0.6680116572
   28      H      -6.9402709827    -0.0766336536     0.1623508076
   29      H      -3.5206078382     1.2742740583     1.0518934774
   30      H      -1.5515760488     2.2528052656     1.8821149234
   31      H      -0.0011322495     1.7288807405     1.4270545023
   32      H      -0.2223673612     1.8408704522    -1.3729473946
   33      H       1.2474907732     2.5906044053    -1.7783887276
   34      H       3.3380942879     1.7972962724    -1.0192392633
 ----------------------------------------------------------------

    9    -728.8065543508      2.19e-06  Convergence criterion met
 Total energy in the final basis set =     -728.8065543508

                    Orbital Energies (a.u.)
 --------------------------------------------------------------

 Alpha MOs
 -- Occupied --
-14.3337 -14.3330 -10.2221 -10.2221 -10.1877 -10.1870 -10.1849 -10.1844
-10.1824 -10.1816 -10.1788 -10.1785 -10.1756 -10.1745 -10.1745 -10.1737
-10.1701 -10.1691  -0.9285  -0.9116  -0.8474  -0.8395  -0.7983  -0.7734
 -0.7403  -0.7264  -0.7253  -0.6981  -0.6381  -0.6151  -0.6026  -0.5902
 -0.5616  -0.5564  -0.5203  -0.5185  -0.5085  -0.4901  -0.4775  -0.4626
 -0.4552  -0.4492  -0.4329  -0.4202  -0.4193  -0.4133  -0.4026  -0.3896
 -0.3826  -0.3802  -0.3601  -0.3534  -0.3451  -0.3363  -0.3281  -0.3260
 -0.3168  -0.2825  -0.2760  -0.2282  -0.2196  -0.1962  -0.1900

          Ground-State Mulliken Net Atomic Charges

     Atom                 Charge (a.u.)
  ----------------------------------------
      1 C                    -0.354295
      2 C                    -0.114314
      3 C                     0.188791
      4 C                    -0.202853
      5 C                    -0.177949
      6 C                     0.011428
      7 C                     0.012892
      8 C                    -0.177026
      9 C                    -0.215834
     10 C                     0.186413
     11 C                    -0.118931
     12 C                    -0.352146
     13 C                    -0.252600
     14 C                     0.286530
     15 N                    -0.797617
     16 C                     0.287521
     17 N                    -0.797758
     18 C                    -0.266324
     19 H                     0.141185
     20 H                     0.142793
     21 H                     0.122361
     22 H                     0.117041
     23 H                     0.130826
     24 H                     0.130978
     25 H                     0.118003
     26 H                     0.125573
     27 H                     0.138959
     28 H                     0.141239
     29 H                     0.110479
     30 H                     0.321247
     31 H                     0.340038
     32 H                     0.340699
     33 H                     0.321143
     34 H                     0.111507
  ----------------------------------------
  Sum of atomic charges =     0.000000

                    Cartesian Multipole Moments
 -----------------------------------------------------------------
    Charge (ESU x 10^10)
                 0.0000
    Dipole Moment (Debye)
         X      -0.0160      Y       1.4296      Z      -0.0087
       Tot       1.4298
    Quadrupole Moments (Debye-Ang)
        XX    -101.5722     XY       0.5203     YY     -97.6627
        XZ      -2.3386     YZ      -0.3238     ZZ    -101.9241

 Total job time:  70.01s(wall), 67.95s(cpu)
        *  Thank you very much for using Q-Chem.  Have a nice day.  *
