 Q-Chem 5.2, Q-Chem, Inc., Pleasanton, CA (2019)
 Q-Chem 5.2.1 for Intel X86 EM64T Linux

User input:
--------------------------------------------------------------
$molecule
0 1
C         3.66537493040000    5.47736736860000   -0.90856165750000
C         3.73781838520000    4.21372173710000   -0.49873523380000
C         2.62161279370000    3.31808364140000   -0.38093503680000
C         2.65735041310000    2.00974034530000    0.03269771390000
C         1.40290012370000    1.37575210420000    0.04765798240000
C         1.15322475290000   -0.04772637410000    0.45413324750000
C         2.40470305070000   -0.82115833060000    0.86513570200000
C         2.07110662900000   -2.25393776750000    1.28790465210000
C         1.74408509830000   -3.15874140460000    0.10079403700000
C         1.18879110790000   -4.52566729640000    0.50540996620000
C        -0.12248021270000   -4.47804667030000    1.29598093980000
C        -1.20827657100000   -3.63818458800000    0.62599631940000
C        -2.54752220320000   -3.75146215540000    1.35331438340000
C        -3.54793553290000   -2.67604166870000    0.92732440910000
C        -3.95692253960000   -2.78140199200000   -0.54048354550000
C        -5.05993601210000   -1.79484304500000   -0.92640105230000
C        -4.59558649380000   -0.34264791150000   -0.91135120560000
C         0.38832977240000    2.21837416310000   -0.36361231730000
C        -1.01102356750000    1.91249499340000   -0.47391577000000
C        -1.95125047540000    2.76426479650000   -0.87641548670000
S         0.99879831310000    3.79720014520000   -0.76666821430000
H         4.53849222440000    6.10152139460000   -0.97689691350000
H         2.72465363270000    5.92235758560000   -1.18796514730000
H         4.69187171650000    3.78214383090000   -0.22184257710000
H         3.57634704060000    1.52916579340000    0.31588949000000
H         0.66856291560000   -0.56042675540000   -0.38157371460000
H         0.44781016430000   -0.05272464030000    1.29208353640000
H         2.87782544220000   -0.30699574790000    1.70473171950000
H         3.11434203080000   -0.84459866190000    0.03539340970000
H         1.22663681200000   -2.22349314190000    1.97763804530000
H         2.92065853230000   -2.67784411020000    1.82839294620000
H         2.65507521910000   -3.31468796000000   -0.48304250340000
H         1.02483908130000   -2.66818686400000   -0.55499596520000
H         1.93554077860000   -5.05376352300000    1.10356614470000
H         1.02674535090000   -5.10732954990000   -0.40573378570000
H         0.06398493150000   -4.08932400580000    2.29926819070000
H        -0.48673511180000   -5.50198020810000    1.41254150200000
H        -1.32136326010000   -3.96185261230000   -0.41019013660000
H        -0.90601468320000   -2.58981199480000    0.62275968170000
H        -2.37275579850000   -3.65309826510000    2.42818769380000
H        -2.97681403800000   -4.74095568400000    1.18021485970000
H        -3.10870889530000   -1.69467785270000    1.11700359180000
H        -4.44319063180000   -2.76326430630000    1.54843973410000
H        -4.31086272160000   -3.79755598460000   -0.73224053060000
H        -3.08943849500000   -2.60551354790000   -1.17907985810000
H        -5.90550356690000   -1.91277713420000   -0.24463054790000
H        -5.41067948930000   -2.04034258120000   -1.93185809630000
H        -4.32444514360000   -0.02887364500000    0.09351544730000
H        -5.39018206830000    0.31037841310000   -1.26605488030000
H        -3.73113501830000   -0.21303526210000   -1.55975268610000
H        -1.28386512290000    0.90168436840000   -0.20025753300000
H        -1.70944250280000    3.77667939660000   -1.15462029230000
H        -2.98538386900000    2.47551688150000   -0.93906537970000
$end

$rem
BASIS = 6-31G*
GUI = 2
METHOD = B3LYP
PRINT_ORBITALS false
MOLDEN_FORMAT false
--------------------------------------------------------------

             Standard Nuclear Orientation (Angstroms)
    I     Atom           X                Y                Z
 ----------------------------------------------------------------
    1      C       6.7771575828    -0.0795997812     0.1751214313
    2      C       5.7309897414     0.7372326178     0.0838870444
    3      C       4.3598905480     0.3179937768     0.0046077693
    4      C       3.2560718625     1.1288997015    -0.0856546319
    5      C       2.0351052409     0.4352238436    -0.1478216749
    6      C       0.6786401294     1.0705648781    -0.2487923709
    7      C       0.6912615987     2.5978584464    -0.2718790219
    8      C      -0.7212411697     3.1735913511    -0.3993334234
    9      C      -1.5201051621     3.0705978825     0.8991476056
   10      C      -2.9994468707     3.4265044293     0.7396781760
   11      C      -3.7740888200     2.5323585055    -0.2335307336
   12      C      -3.6118375894     1.0399636923     0.0486637032
   13      C      -4.5278197632     0.1899355003    -0.8310129231
   14      C      -4.1503962918    -1.2920666312    -0.8243258541
   15      C      -4.3051452312    -1.9468278294     0.5468677501
   16      C      -4.0623129173    -3.4565174747     0.5196787647
   17      C      -2.6086908967    -3.8235830357     0.2422556696
   18      C       2.2111172144    -0.9342980281    -0.1038010054
   19      C       1.1938172112    -1.9479204756    -0.1436623330
   20      C       1.4177030275    -3.2591780556    -0.0986828050
   21      S       3.8956495011    -1.3542096540     0.0138534817
   22      H       7.7840533530     0.2939122710     0.2318789781
   23      H       6.6520058414    -1.1496276029     0.1955338234
   24      H       5.8748761695     1.8105831269     0.0648562271
   25      H       3.3394080590     2.2005294997    -0.1048623736
   26      H       0.0774250956     0.7259290654     0.5973350095
   27      H       0.1919009066     0.7107920215    -1.1617238205
   28      H       1.2868525848     2.9333027649    -1.1238637153
   29      H       1.1560071983     2.9778746452     0.6403755583
   30      H      -1.2398935545     2.6440086151    -1.1995397282
   31      H      -0.6576543314     4.2249271042    -0.6895272688
   32      H      -1.0794847937     3.7464401518     1.6368320586
   33      H      -1.4438707285     2.0618478165     1.3048947346
   34      H      -3.0851111818     4.4624030350     0.4022063793
   35      H      -3.4701933197     3.3618570728     1.7240517033
   36      H      -3.4588663454     2.7401940313    -1.2581765522
   37      H      -4.8332844942     2.7935557924    -0.1657930997
   38      H      -3.8291036742     0.8500707430     1.1012643288
   39      H      -2.5792090599     0.7444325170    -0.1431629458
   40      H      -4.4662740556     0.5565300219    -1.8593085845
   41      H      -5.5633091387     0.3061898499    -0.5029899863
   42      H      -3.1178921330    -1.3917662572    -1.1648670669
   43      H      -4.7868277433    -1.8198801243    -1.5393374984
   44      H      -5.3187509577    -1.7599903313     0.9106101190
   45      H      -3.6091293508    -1.4919877833     1.2539412890
   46      H      -4.7030562910    -3.9123635114    -0.2388436673
   47      H      -4.3504287484    -3.8731527115     1.4879964934
   48      H      -2.3084179612    -3.5074239985    -0.7535397610
   49      H      -2.4729952047    -4.9009342013     0.3096452054
   50      H      -1.9514518620    -3.3498151426     0.9689475625
   51      H       0.1791607610    -1.5786695713    -0.2157423052
   52      H       2.4169424594    -3.6557786114    -0.0274024511
   53      H       0.6121638147    -3.9710357176    -0.1318111746
 ----------------------------------------------------------------

    9   -1179.5605111593      1.58e-06  Convergence criterion met
 Total energy in the final basis set =    -1179.5605111593

                    Orbital Energies (a.u.)
 --------------------------------------------------------------

 Alpha MOs
 -- Occupied --
-88.8955 -10.2134 -10.2091 -10.1950 -10.1936 -10.1918 -10.1885 -10.1841
-10.1818 -10.1787 -10.1777 -10.1769 -10.1745 -10.1742 -10.1738 -10.1731
-10.1730 -10.1727 -10.1724 -10.1720 -10.1684  -7.9575  -5.9216  -5.9179
 -5.9144  -0.8870  -0.8210  -0.8105  -0.8029  -0.7896  -0.7722  -0.7604
 -0.7380  -0.7133  -0.7055  -0.6785  -0.6548  -0.6305  -0.6239  -0.5963
 -0.5873  -0.5658  -0.5595  -0.5506  -0.5389  -0.5165  -0.4940  -0.4785
 -0.4716  -0.4625  -0.4565  -0.4541  -0.4463  -0.4382  -0.4314  -0.4231
 -0.4224  -0.4079  -0.4026  -0.3959  -0.3888  -0.3861  -0.3812  -0.3769
 -0.3709  -0.3656  -0.3600  -0.3559  -0.3518  -0.3463  -0.3411  -0.3359
 -0.3278  -0.3247  -0.3215  -0.3181  -0.3156  -0.3105  -0.3051  -0.3049
 -0.2961  -0.2666  -0.2429  -0.1926

          Ground-State Mulliken Net Atomic Charges

     Atom                 Charge (a.u.)
  ----------------------------------------
      1 C                    -0.375143
      2 C                    -0.055369
      3 C                    -0.139522
      4 C                    -0.184951
      5 C                     0.151597
      6 C                    -0.345977
      7 C                    -0.269428
      8 C                    -0.256400
      9 C                    -0.267138
     10 C                    -0.257302
     11 C                    -0.260224
     12 C                    -0.261628
     13 C                    -0.255981
     14 C                    -0.258057
     15 C                    -0.250776
     16 C                    -0.250940
     17 C                    -0.451915
     18 C                    -0.201652
     19 C                    -0.061916
     20 C                    -0.381245
     21 S                     0.239632
     22 H                     0.145117
     23 H                     0.155858
     24 H                     0.135932
     25 H                     0.136910
     26 H                     0.159560
     27 H                     0.153176
     28 H                     0.137558
     29 H                     0.138443
     30 H                     0.134479
     31 H                     0.130322
     32 H                     0.129677
     33 H                     0.139472
     34 H                     0.126565
     35 H                     0.127328
     36 H                     0.132139
     37 H                     0.129666
     38 H                     0.135165
     39 H                     0.132598
     40 H                     0.126176
     41 H                     0.128760
     42 H                     0.129457
     43 H                     0.126129
     44 H                     0.126142
     45 H                     0.132119
     46 H                     0.130200
     47 H                     0.129898
     48 H                     0.149095
     49 H                     0.143218
     50 H                     0.145906
     51 H                     0.139616
     52 H                     0.156095
     53 H                     0.151558
  ----------------------------------------
  Sum of atomic charges =     0.000000

                    Cartesian Multipole Moments
 -----------------------------------------------------------------
    Charge (ESU x 10^10)
                 0.0000
    Dipole Moment (Debye)
         X      -1.1066      Y       1.1272      Z      -0.0281
       Tot       1.5799
    Quadrupole Moments (Debye-Ang)
        XX    -137.4283     XY       4.5981     YY    -134.7939
        XZ       0.1557     YZ      -0.2982     ZZ    -143.3388

 Total job time:  125.03s(wall), 124.68s(cpu)
        *  Thank you very much for using Q-Chem.  Have a nice day.  *
