 Q-Chem 5.2, Q-Chem, Inc., Pleasanton, CA (2019)
 Q-Chem 5.2.1 for Intel X86 EM64T Linux

User input:
--------------------------------------------------------------
$molecule
0 1
C         4.22168212890000   -0.94829368520000   -0.01245192550000
C         3.28344593840000   -0.00745897790000    0.04865876150000
C         1.86295264940000   -0.23761774040000    0.04224466610000
N         1.28673310410000   -1.46038144490000   -0.03070622000000
N        -0.04710776510000   -1.40967376360000   -0.02645585000000
C        -0.36075765540000   -0.12356278600000    0.03574687300000
N        -1.64609406100000    0.35838912280000    0.11939483110000
C        -2.85276377700000   -0.28780115460000    0.03963882720000
C        -2.80636182910000   -1.75908430950000   -0.24547964810000
O        -3.87248463880000    0.34960761530000    0.18969194990000
C         0.81158739320000    0.68324076950000    0.07639354260000
C         0.92296251080000    2.12381240920000    0.15344590330000
C         0.06799964980000    3.00005113520000   -0.36289446570000
H         5.26656380080000   -0.69416743650000   -0.00041843990000
H         3.99292276040000   -1.99882953290000   -0.07757285380000
H         3.57018033070000    1.03320320250000    0.10709601160000
H         1.74401544980000   -2.35432761180000   -0.09156018100000
H        -1.71201096440000    1.34906906320000    0.32450523750000
H        -2.24038218990000   -1.94515113040000   -1.15403342140000
H        -3.82075133640000   -2.13362714320000   -0.34749299260000
H        -2.29667489690000   -2.27097966370000    0.56638758340000
H         1.80262022330000    2.48639595440000    0.67177776310000
H        -0.79106337300000    2.70742914750000   -0.94304182380000
H         0.22433002620000    4.05943858610000   -0.25397185280000
$end

$rem
BASIS = 6-31G*
GUI = 2
METHOD = B3LYP
PRINT_ORBITALS false
MOLDEN_FORMAT false
--------------------------------------------------------------

             Standard Nuclear Orientation (Angstroms)
    I     Atom           X                Y                Z
 ----------------------------------------------------------------
    1      C       4.1824533302    -0.9892277451    -0.0195364345
    2      C       3.2534049999    -0.0394300637     0.0432742016
    3      C       1.8307798579    -0.2561148426     0.0423838783
    4      N       1.2427350607    -1.4734833082    -0.0263126177
    5      N      -0.0905411043    -1.4101180309    -0.0173511267
    6      C      -0.3917583167    -0.1209829218     0.0436877170
    7      N      -1.6721574293     0.3732852260     0.1311028715
    8      C      -2.8851789812    -0.2615682183     0.0568430748
    9      C      -2.8537574597    -1.7337215475    -0.2258176245
   10      O      -3.8982624257     0.3857460804     0.2094296028
   11      C       0.7883214141     0.6747335524     0.0786757686
   12      C       0.9136252337     2.1143164044     0.1527588106
   13      C       0.0651452485     2.9977216676    -0.3620615764
   14      H       5.2297337084    -0.7450038007    -0.0117173666
   15      H       3.9435117619    -2.0376586087    -0.0819608081
   16      H       3.5502008397     0.9985659688     0.0988238528
   17      H       1.6912997055    -2.3718319582    -0.0872187768
   18      H      -1.7279380892     1.3649029385     0.3346830561
   19      H      -2.2928565638    -1.9267368522    -1.1360698147
   20      H      -3.8720141357    -2.0988030246    -0.3235109520
   21      H      -2.3460130902    -2.2490085205     0.5851207300
   22      H       1.7985493091     2.4694450150     0.6672736172
   23      H      -0.7987455600     2.7122479342    -0.9385902231
   24      H       0.2319038705     4.0557673446    -0.2555909205
 ----------------------------------------------------------------

    9    -589.0128159924      4.87e-06  Convergence criterion met
 Total energy in the final basis set =     -589.0128159924

                    Orbital Energies (a.u.)
 --------------------------------------------------------------

 Alpha MOs
 -- Occupied --
-19.1061 -14.4168 -14.3675 -14.3531 -10.2833 -10.2558 -10.2393 -10.2157
-10.2064 -10.2029 -10.1989 -10.1890 -10.1715  -1.0661  -1.0352  -0.9411
 -0.8453  -0.8226  -0.7833  -0.7521  -0.7355  -0.6552  -0.6392  -0.6255
 -0.5878  -0.5508  -0.5192  -0.5056  -0.4914  -0.4739  -0.4662  -0.4557
 -0.4410  -0.4369  -0.4099  -0.4000  -0.3964  -0.3868  -0.3739  -0.3676
 -0.3324  -0.3220  -0.2977  -0.2894  -0.2453  -0.2257  -0.2160

          Ground-State Mulliken Net Atomic Charges

     Atom                 Charge (a.u.)
  ----------------------------------------
      1 C                    -0.356313
      2 C                    -0.072711
      3 C                     0.359096
      4 N                    -0.517123
      5 N                    -0.367994
      6 C                     0.529846
      7 N                    -0.690303
      8 C                     0.557735
      9 C                    -0.514004
     10 O                    -0.492174
     11 C                    -0.046839
     12 C                    -0.117384
     13 C                    -0.371346
     14 H                     0.157955
     15 H                     0.133184
     16 H                     0.144823
     17 H                     0.344695
     18 H                     0.337808
     19 H                     0.178735
     20 H                     0.169829
     21 H                     0.187958
     22 H                     0.138744
     23 H                     0.155896
     24 H                     0.149888
  ----------------------------------------
  Sum of atomic charges =     0.000000

                    Cartesian Multipole Moments
 -----------------------------------------------------------------
    Charge (ESU x 10^10)
                -0.0000
    Dipole Moment (Debye)
         X       5.3822      Y      -0.8779      Z      -0.2124
       Tot       5.4575
    Quadrupole Moments (Debye-Ang)
        XX     -83.7443     XY       0.3501     YY     -66.4384
        XZ       2.3172     YZ       0.7837     ZZ     -77.9429

 Total job time:  32.39s(wall), 32.28s(cpu)
        *  Thank you very much for using Q-Chem.  Have a nice day.  *
