 Q-Chem 5.2, Q-Chem, Inc., Pleasanton, CA (2019)
 Q-Chem 5.2.1 for Intel X86 EM64T Linux

User input:
--------------------------------------------------------------
$molecule
0 1
C         4.02957322300000    0.59325350570000   -0.13399870500000
C         3.29794029610000   -0.50365937800000    0.02365699870000
C         1.84345886570000   -0.57595203950000    0.04976966330000
C         1.21470534630000   -1.82365549310000    0.11649960770000
C        -0.15795941490000   -1.93460262260000    0.12963186540000
C        -0.99427657270000   -0.81459605900000    0.10011872940000
C        -2.44462046310000   -0.98084775030000    0.07945650390000
C        -3.06139971440000   -2.01586641500000   -0.47908082400000
C        -0.35668218530000    0.43688995010000    0.05940058320000
N        -1.07987972180000    1.68543746920000    0.03295431840000
O        -2.13444701900000    1.76634384160000    0.62604158200000
O        -0.56504764980000    2.60315574660000   -0.57170638670000
C         1.02573667710000    0.54840383520000    0.01757832520000
H         5.10476015610000    0.54829184290000   -0.14429010710000
H         3.59824090250000    1.57063714140000   -0.26422681550000
H         3.79574782390000   -1.45861978760000    0.13751769550000
H         1.81981152460000   -2.71799136960000    0.15546371690000
H        -0.60918128740000   -2.91282966430000    0.18691137870000
H        -3.02725079850000   -0.19182732890000    0.53040114070000
H        -2.53126985570000   -2.80815443170000   -0.98175846600000
H        -4.13465098210000   -2.09277713270000   -0.47201073490000
H         1.45037885710000    1.53918882210000   -0.02795433620000
$end

$rem
BASIS = 6-31G*
GUI = 2
METHOD = B3LYP
PRINT_ORBITALS false
MOLDEN_FORMAT false
--------------------------------------------------------------

             Standard Nuclear Orientation (Angstroms)
    I     Atom           X                Y                Z
 ----------------------------------------------------------------
    1      C       4.0237176487    -0.4715103974     0.1218202363
    2      C       3.2467557558     0.5934077020    -0.0383034456
    3      C       1.7904697787     0.6050846785    -0.0610879281
    4      C       1.1102405629     1.8253018375    -0.1311313489
    5      C      -0.2658764417     1.8790518734    -0.1412896783
    6      C      -1.0548421214     0.7253830254    -0.1053249497
    7      C      -2.5107915513     0.8312964754    -0.0817124209
    8      C      -3.1687665416     1.8420173405     0.4743059896
    9      C      -0.3656827521    -0.4983501921    -0.0613002147
   10      N      -1.0362906382    -1.7757589610    -0.0281808910
   11      O      -2.0879549211    -1.9027988678    -0.6183280131
   12      O      -0.4823546032    -2.6688578207     0.5787810216
   13      C       1.0202699503    -0.5521461526    -0.0224741899
   14      H       5.0961271486    -0.3818621098     0.1292669975
   15      H       3.6336903423    -1.4654460282     0.2569363529
   16      H       3.7041706843     1.5677679415    -0.1571297208
   17      H       1.6775548155     2.7438498271    -0.1750913128
   18      H      -0.7575040827     2.8374436622    -0.2012705723
   19      H      -3.0611627979     0.0169431826    -0.5281232226
   20      H      -2.6708661812     2.6576607567     0.9725667937
   21      H      -4.2443007428     1.8742285119     0.4695995345
   22      H       1.4858357452    -1.5242366521     0.0258750201
 ----------------------------------------------------------------

   10    -591.5383969646      3.10e-06  Convergence criterion met
 Total energy in the final basis set =     -591.5383969646

                    Orbital Energies (a.u.)
 --------------------------------------------------------------

 Alpha MOs
 -- Occupied --
-19.1807 -19.1790 -14.5733 -10.2520 -10.2282 -10.2180 -10.2149 -10.2124
-10.2099 -10.2055 -10.1985 -10.1949 -10.1938  -1.2427  -1.0636  -0.9012
 -0.8334  -0.8123  -0.7813  -0.7372  -0.7061  -0.6593  -0.6062  -0.5905
 -0.5795  -0.5473  -0.5358  -0.5160  -0.5100  -0.4954  -0.4655  -0.4560
 -0.4550  -0.4248  -0.4141  -0.4013  -0.3741  -0.3715  -0.3661  -0.3344
 -0.3115  -0.3079  -0.2997  -0.2822  -0.2727  -0.2325

          Ground-State Mulliken Net Atomic Charges

     Atom                 Charge (a.u.)
  ----------------------------------------
      1 C                    -0.344888
      2 C                    -0.118364
      3 C                     0.175463
      4 C                    -0.177483
      5 C                    -0.200987
      6 C                     0.142500
      7 C                    -0.130817
      8 C                    -0.331635
      9 C                     0.217502
     10 N                     0.367977
     11 O                    -0.396076
     12 O                    -0.389057
     13 C                    -0.209746
     14 H                     0.153074
     15 H                     0.154974
     16 H                     0.134150
     17 H                     0.141529
     18 H                     0.145777
     19 H                     0.189719
     20 H                     0.146670
     21 H                     0.155324
     22 H                     0.174395
  ----------------------------------------
  Sum of atomic charges =     0.000000

                    Cartesian Multipole Moments
 -----------------------------------------------------------------
    Charge (ESU x 10^10)
                 0.0000
    Dipole Moment (Debye)
         X       1.9096      Y       3.7125      Z      -0.0401
       Tot       4.1750
    Quadrupole Moments (Debye-Ang)
        XX     -67.0842     XY      -5.1907     YY     -75.7458
        XZ      -1.6627     YZ       1.3317     ZZ     -77.7527

 Total job time:  33.66s(wall), 33.55s(cpu)
        *  Thank you very much for using Q-Chem.  Have a nice day.  *
