 Q-Chem 5.4, Q-Chem, Inc., Pleasanton, CA (2021)
 Q-Chem 5.4.2 for Intel X86 EM64T Linux

User input:
--------------------------------------------------------------
$molecule
0 1
C           -4.48001099600000        0.68915934590000       -0.49222741760000
C           -3.66942988190000       -0.05976594070000        0.24213831120000
C           -2.21074531180000       -0.12283921010000        0.13604763960000
C           -1.61969074830000       -1.38222942000000        0.24764466730000
C           -0.25839499080000       -1.58846818380000        0.13237940760000
C            0.30024755690000       -2.97447984750000        0.25789625000000
C            0.56879779820000       -0.47313718550000       -0.07887162410000
C            2.00716620150000       -0.65568937960000       -0.21954703160000
C            2.95794725880000        0.24843134390000       -0.04349514390000
F            2.82763289580000        1.51861092450000        0.32558126670000
F            4.25564266110000       -0.01860220620000       -0.20635090760000
C           -0.01538657580000        0.78889615340000       -0.15499170140000
C           -1.38318074300000        0.99037188960000       -0.05304175680000
C           -1.90536749530000        2.39418761110000       -0.11284354920000
H           -5.54893618420000        0.64686556840000       -0.36611007660000
H           -4.11911917800000        1.34579402900000       -1.26402989970000
H           -4.09606560960000       -0.74717837790000        0.96375366620000
H           -2.26345122160000       -2.23514315190000        0.41506782410000
H           -0.49104054000000       -3.67985662370000        0.49846187470000
H            1.05281423100000       -3.02076528020000        1.04355777670000
H            0.76272856680000       -3.29140459050000       -0.67694184780000
H            2.36106587840000       -1.63826398620000       -0.49171202660000
H            0.61298356200000        1.65156369480000       -0.31183909640000
H           -1.16110963100000        3.08504739790000        0.27765293380000
H           -2.82157021530000        2.49618441410000        0.46340935470000
H           -2.11500734890000        2.68112400110000       -1.14330802230000
$end

$rem
BASIS = 6-31G*
GUI = 2
METHOD = B3LYP
PRINT_ORBITALS false
MOLDEN_FORMAT false
$end
--------------------------------------------------------------

             Standard Nuclear Orientation (Angstroms)
    I     Atom           X                Y                Z
 ----------------------------------------------------------------
    1      C       4.4016731251    -0.4353169913    -0.4248657803
    2      C       3.5352293703     0.3029839082     0.2544065160
    3      C       2.0765866542     0.2569823632     0.1393438037
    4      C       1.3988006234     1.4767716636     0.1634944453
    5      C       0.0274630798     1.5794322188     0.0299249908
    6      C      -0.6268766886     2.9284424372     0.0595088339
    7      C      -0.7187188661     0.3974972943    -0.1082071287
    8      C      -2.1650943380     0.4695034025    -0.2657877496
    9      C      -3.0523325532    -0.4847836346    -0.0322117042
   10      F      -2.8373052975    -1.7150968224     0.4223739709
   11      F      -4.3640524223    -0.3203821310    -0.2171587362
   12      C      -0.0478901534    -0.8230159864    -0.0968068038
   13      C       1.3297076409    -0.9213783896     0.0231777868
   14      C       1.9483825021    -2.2862306692     0.0602386793
   15      H       5.4640427553    -0.3102564180    -0.2982718346
   16      H       4.0934059588    -1.1659094912    -1.1517062277
   17      H       3.9073535639     1.0654161604     0.9293163388
   18      H       1.9805358391     2.3817935319     0.2750267330
   19      H       0.1116584311     3.7018188773     0.2544955703
   20      H      -1.3871733260     2.9748972227     0.8376823048
   21      H      -1.1026287532     3.1487926933    -0.8961888087
   22      H      -2.5840167552     1.4044995001    -0.6049896499
   23      H      -0.6136822103    -1.7359622771    -0.1970756471
   24      H       1.2506515362    -2.9994487208     0.4940428135
   25      H       2.8647585424    -2.2851576982     0.6451762681
   26      H       2.1857315160    -2.6264985002    -0.9477403082
 ----------------------------------------------------------------

    9    -664.1436358585      6.70e-06  Convergence criterion met
 Total energy in the final basis set =     -664.1436358585

                    Orbital Energies (a.u.)
 --------------------------------------------------------------

 Alpha MOs
 -- Occupied --
-24.7411 -24.7313 -10.3541 -10.1995 -10.1982 -10.1919 -10.1901 -10.1888
-10.1884 -10.1830 -10.1805 -10.1789 -10.1786 -10.1742  -1.2817  -1.2209
 -0.8711  -0.8181  -0.7853  -0.7734  -0.7241  -0.7200  -0.6577  -0.6440
 -0.6095  -0.5966  -0.5704  -0.5405  -0.5204  -0.5158  -0.4917  -0.4718
 -0.4557  -0.4387  -0.4343  -0.4301  -0.4257  -0.4252  -0.4148  -0.4086
 -0.4021  -0.3930  -0.3770  -0.3691  -0.3521  -0.3340  -0.3303  -0.3033
 -0.2635  -0.2369  -0.2090

          Ground-State Mulliken Net Atomic Charges

     Atom                 Charge (a.u.)
  ----------------------------------------
      1 C                    -0.336644
      2 C                    -0.140072
      3 C                     0.116198
      4 C                    -0.264035
      5 C                     0.132448
      6 C                    -0.538522
      7 C                     0.148462
      8 C                    -0.313313
      9 C                     0.550875
     10 F                    -0.235476
     11 F                    -0.251253
     12 C                    -0.265111
     13 C                     0.131043
     14 C                    -0.536235
     15 H                     0.141783
     16 H                     0.147845
     17 H                     0.133673
     18 H                     0.118423
     19 H                     0.159427
     20 H                     0.165556
     21 H                     0.162281
     22 H                     0.160615
     23 H                     0.127880
     24 H                     0.155246
     25 H                     0.168085
     26 H                     0.160820
  ----------------------------------------
  Sum of atomic charges =     0.000000

                    Cartesian Multipole Moments
 -----------------------------------------------------------------
    Charge (ESU x 10^10)
                 0.0000
    Dipole Moment (Debye)
         X       0.8350      Y       0.8337      Z      -0.1605
       Tot       1.1908
    Quadrupole Moments (Debye-Ang)
        XX     -80.3312     XY      -2.3829     YY     -75.5262
        XZ       0.7957     YZ       1.4784     ZZ     -81.8807

 Total job time:  69.80s(wall), 62.45s(cpu)
        *  Thank you very much for using Q-Chem.  Have a nice day.  *
