 Q-Chem 5.2, Q-Chem, Inc., Pleasanton, CA (2019)
 Q-Chem 5.2.1 for Intel X86 EM64T Linux

User input:
--------------------------------------------------------------
$molecule
0 1
C         4.77801833010000    0.09232839230000   -0.18287394610000
C         3.57773859720000    0.66014586020000   -0.14617193400000
C         2.29612828840000   -0.02433078470000   -0.04909726780000
C         2.16413551420000   -1.41476170890000    0.03907186400000
C         0.92778830940000   -2.01838408340000    0.12159147560000
C        -0.25413972020000   -1.26730484120000    0.12688826370000
C        -1.57497860640000   -1.87516581470000    0.18936470680000
C        -1.83199998910000   -3.06822556360000    0.71370660880000
C        -0.10382871780000    0.11273201360000    0.03864392150000
S        -1.50595134530000    1.19011190480000    0.05107493290000
O        -2.51912369280000    0.80518577400000    0.96877683120000
O        -1.10771992420000    2.55090306360000   -0.03269388300000
F        -2.10454449400000    0.81479714700000   -1.44611240220000
C         1.12079695130000    0.73070041420000   -0.04626806530000
H         5.67202615620000    0.68664146230000   -0.25676536380000
H         4.92432076710000   -0.97333632980000   -0.14317416510000
H         3.50304464700000    1.73884031170000   -0.19302410440000
H         3.04722339000000   -2.03430458550000    0.03589308550000
H         0.86452519740000   -3.09457579660000    0.16243714730000
H        -2.38173836830000   -1.27734039500000   -0.20503805330000
H        -1.06891761010000   -3.68170615800000    1.16344669260000
H        -2.83188859350000   -3.46432524460000    0.73199200420000
H         1.14281653750000    1.80717171020000   -0.11264089000000
$end

$rem
BASIS = 6-31G*
GUI = 2
METHOD = B3LYP
PRINT_ORBITALS false
MOLDEN_FORMAT false
--------------------------------------------------------------

             Standard Nuclear Orientation (Angstroms)
    I     Atom           X                Y                Z
 ----------------------------------------------------------------
    1      C       4.6909627981     0.4925321636     0.0009834476
    2      C       3.4516522948     0.9659388111     0.0675475096
    3      C       2.2216061318     0.1876677874     0.0258653517
    4      C       2.1897460230    -1.2077958077    -0.0749331182
    5      C       0.9992847647    -1.9010567237    -0.1186956932
    6      C      -0.2343279026    -1.2410058045    -0.0584086942
    7      C      -1.5081547410    -1.9416107702    -0.1257251127
    8      C      -1.6912139779    -3.2090999325     0.2269029137
    9      C      -0.1834403109     0.1454593388     0.0416265066
   10      S      -1.6607402094     1.1118942642     0.1437948349
   11      O      -2.6678659378     0.5382549891     0.9644645952
   12      O      -1.3614068812     2.4958753388     0.2549433874
   13      F      -2.1885321448     0.9002679584    -1.4110025220
   14      C       0.9943476260     0.8524124389     0.0844740177
   15      H       5.5405866678     1.1517635403     0.0393400881
   16      H       4.9140164052    -0.5561414825    -0.0946849789
   17      H       3.2992265031     2.0334032828     0.1605099295
   18      H       3.1157175602    -1.7587623348    -0.1268972909
   19      H       1.0141613362    -2.9747801157    -0.2224066329
   20      H      -2.3454500774    -1.3535182580    -0.4676224655
   21      H      -0.8978403268    -3.8231092816     0.6199297178
   22      H      -2.6594188525    -3.6722507254     0.1556484540
   23      H       0.9390397546     1.9269838919     0.1614018859
 ----------------------------------------------------------------

    9   -1034.8529916377      7.05e-06  Convergence criterion met
 Total energy in the final basis set =    -1034.8529916377

                    Orbital Energies (a.u.)
 --------------------------------------------------------------

 Alpha MOs
 -- Occupied --
-89.1481 -24.7190 -19.1723 -19.1718 -10.2460 -10.2353 -10.2256 -10.2238
-10.2202 -10.2186 -10.2101 -10.2067 -10.2001 -10.1997  -8.1731  -6.1395
 -6.1368  -6.1351  -1.2309  -1.1286  -1.0470  -0.9066  -0.8374  -0.8051
 -0.7861  -0.7454  -0.6966  -0.6618  -0.6320  -0.5940  -0.5908  -0.5477
 -0.5266  -0.5176  -0.5062  -0.4887  -0.4829  -0.4665  -0.4487  -0.4406
 -0.4352  -0.4317  -0.4145  -0.4044  -0.3972  -0.3879  -0.3746  -0.3672
 -0.3496  -0.3472  -0.3367  -0.3240  -0.2955  -0.2851  -0.2377

          Ground-State Mulliken Net Atomic Charges

     Atom                 Charge (a.u.)
  ----------------------------------------
      1 C                    -0.348628
      2 C                    -0.110051
      3 C                     0.183848
      4 C                    -0.170314
      5 C                    -0.173744
      6 C                     0.181194
      7 C                    -0.127549
      8 C                    -0.344655
      9 C                    -0.247257
     10 S                     1.232426
     11 O                    -0.467007
     12 O                    -0.456571
     13 F                    -0.334571
     14 C                    -0.234978
     15 H                     0.156712
     16 H                     0.148338
     17 H                     0.142098
     18 H                     0.144074
     19 H                     0.148178
     20 H                     0.176478
     21 H                     0.149664
     22 H                     0.160844
     23 H                     0.191471
  ----------------------------------------
  Sum of atomic charges =     0.000000

                    Cartesian Multipole Moments
 -----------------------------------------------------------------
    Charge (ESU x 10^10)
                 0.0000
    Dipole Moment (Debye)
         X       4.2325      Y      -3.1541      Z      -0.3988
       Tot       5.2936
    Quadrupole Moments (Debye-Ang)
        XX     -83.1090     XY       5.4314     YY     -82.2891
        XZ       2.1078     YZ      -0.3224     ZZ     -91.6106

 Total job time:  37.80s(wall), 37.68s(cpu)
        *  Thank you very much for using Q-Chem.  Have a nice day.  *
