 Q-Chem 5.2, Q-Chem, Inc., Pleasanton, CA (2019)
 Q-Chem 5.2.1 for Intel X86 EM64T Linux

User input:
--------------------------------------------------------------
$molecule
0 1
C        -5.93443791540000   -1.81530480480000    0.22981836140000
C        -5.90560419210000   -0.49044254490000    0.16518665150000
C        -4.67447958140000    0.28878485190000    0.07598017900000
C        -4.72297700950000    1.68636099220000    0.05195979980000
C        -3.53685073760000    2.39505362330000   -0.02508847390000
C        -2.34312996270000    1.69890690580000   -0.07594331140000
C        -2.38518036140000    0.30297204450000   -0.05037129270000
C        -1.14442798880000   -0.48596115900000   -0.10065930990000
C        -1.19171897040000   -1.87956956900000   -0.17358534790000
C         0.00000381120000   -2.58108246540000   -0.21287732430000
C         1.19172317000000   -1.87956641930000   -0.17354052660000
C         1.14442639580000   -0.48595827240000   -0.10060954100000
C         2.38517566250000    0.30297630870000   -0.05027116830000
C         2.34311382430000    1.69891510110000   -0.07560700440000
C         3.53683595150000    2.39506113540000   -0.02477479830000
C         4.72297627340000    1.68636391090000    0.05201518210000
C         4.67448732180000    0.28878449020000    0.07585786520000
C         5.90562238590000   -0.49045065050000    0.16485993480000
C         5.93443824050000   -1.81529352630000    0.22989085110000
N         3.52348759910000   -0.37415073490000    0.02245208710000
N        -0.00000247990000    0.18715878910000   -0.06969444710000
N        -3.52348119830000   -0.37415170130000    0.02255047450000
H        -6.85731257560000   -2.36519640590000    0.29766406490000
H        -5.01915911490000   -2.38092753390000    0.21732677250000
H        -6.82105174370000    0.08675354450000    0.18078200110000
H        -5.67346480980000    2.19692160910000    0.09510376350000
H        -3.54461377250000    3.47595629990000   -0.04460648350000
H        -1.38978465160000    2.19650342480000   -0.13470240380000
H        -2.15059457390000   -2.36990953430000   -0.19839316220000
H         0.00000636450000   -3.66045373210000   -0.27236864840000
H         2.15060135930000   -2.36990305680000   -0.19831592710000
H         1.38975839650000    2.19651482660000   -0.13417265380000
H         3.54458969320000    3.47596698550000   -0.04411724530000
H         5.67346650170000    2.19692329940000    0.09511877580000
H         6.82109082290000    0.08672465720000    0.17998622940000
H         5.01913784570000   -2.38089240280000    0.21788984180000
H         6.85731965120000   -2.36519307160000    0.29758081760000
$end

$rem
BASIS = 6-31G*
GUI = 2
METHOD = B3LYP
PRINT_ORBITALS false
MOLDEN_FORMAT false
--------------------------------------------------------------

             Standard Nuclear Orientation (Angstroms)
    I     Atom           X                Y                Z
 ----------------------------------------------------------------
    1      C       5.9344378740    -1.8090389052    -0.2255881180
    2      C       5.9056041657    -0.4840922744    -0.1627097274
    3      C       4.6744795586     0.2952525115    -0.0745346497
    4      C       4.7229770071     1.6928592147    -0.0523637725
    5      C       3.5368507389     2.4016532064     0.0237464639
    6      C       2.3431299475     1.7055744166     0.0755223838
    7      C       2.3851803261     0.3096069361     0.0517977056
    8      C       1.1444279356    -0.4792590078     0.1031295903
    9      C       1.1917188872    -1.8727696914     0.1778998043
   10      C      -0.0000039098    -2.5742299572     0.2181199749
   11      C      -1.1917232532    -1.8727665626     0.1778547384
   12      C      -1.1444264490    -0.4792561501     0.1030795866
   13      C      -2.3851756978     0.3096111448     0.0516970942
   14      C      -2.3431138394     1.7055822424     0.0751855933
   15      C      -3.5368359502     2.4016604175     0.0234320647
   16      C      -4.7229762758     1.6928622124    -0.0524201120
   17      C      -4.6744873446     0.2952524624    -0.0744132791
   18      C      -5.9056224124    -0.4840997572    -0.1623841923
   19      C      -5.9344382819    -1.8090275313    -0.2256618204
   20      N      -3.5234876380    -0.3676115261    -0.0201301346
   21      N       0.0000024408     0.1938193920     0.0712738641
   22      N       3.5234811594    -0.3676127363    -0.0202278094
   23      H       6.8573125321    -2.3590198235    -0.2927059685
   24      H       5.0191590630    -2.3746445935    -0.2123481142
   25      H       6.8210517282     0.0930826567    -0.1790688048
   26      H       5.6734648200     2.2033622745    -0.0961832542
   27      H       3.5446137894     3.4825807656     0.0418340419
   28      H       1.3897846386     2.2032482742     0.1336228330
   29      H       2.1505944802    -2.3630764133     0.2033565863
   30      H      -0.0000064866    -3.6535215507     0.2790396355
   31      H      -2.1506014530    -2.3630699687     0.2032789086
   32      H      -1.3897584094     2.2032590198     0.1330927878
   33      H      -3.5445896762     3.4825909181     0.0413440745
   34      H      -5.6734664915     2.2033641280    -0.0961994139
   35      H      -6.8210908384     0.0930550425    -0.1782743724
   36      H      -5.0191378975    -2.3746100457    -0.2129122426
   37      H      -6.8573196947    -2.3590161579    -0.2926241099
 ----------------------------------------------------------------

    9    -897.2897618989      2.72e-06  Convergence criterion met
 Total energy in the final basis set =     -897.2897618989

                    Orbital Energies (a.u.)
 --------------------------------------------------------------

 Alpha MOs
 -- Occupied --
-14.3255 -14.3224 -14.3224 -10.2250 -10.2250 -10.2236 -10.2236 -10.2225
-10.2225 -10.2031 -10.2031 -10.2005 -10.1942 -10.1942 -10.1888 -10.1888
-10.1886 -10.1886 -10.1860 -10.1860 -10.1786 -10.1786  -0.9629  -0.9512
 -0.9377  -0.8164  -0.8082  -0.8044  -0.7992  -0.7981  -0.7667  -0.7375
 -0.7247  -0.6602  -0.6597  -0.6410  -0.6330  -0.6027  -0.5952  -0.5697
 -0.5628  -0.5345  -0.5055  -0.4936  -0.4921  -0.4885  -0.4754  -0.4695
 -0.4531  -0.4531  -0.4339  -0.4279  -0.4252  -0.4183  -0.4112  -0.4080
 -0.4012  -0.3936  -0.3873  -0.3808  -0.3763  -0.3675  -0.3546  -0.3460
 -0.3186  -0.3066  -0.2968  -0.2905  -0.2758  -0.2698  -0.2538  -0.2485
 -0.2453  -0.2286  -0.2192

          Ground-State Mulliken Net Atomic Charges

     Atom                 Charge (a.u.)
  ----------------------------------------
      1 C                    -0.333047
      2 C                    -0.110397
      3 C                     0.331272
      4 C                    -0.186450
      5 C                    -0.098380
      6 C                    -0.156058
      7 C                     0.262213
      8 C                     0.268322
      9 C                    -0.153261
     10 C                    -0.101406
     11 C                    -0.153262
     12 C                     0.268323
     13 C                     0.262214
     14 C                    -0.156058
     15 C                    -0.098379
     16 C                    -0.186449
     17 C                     0.331269
     18 C                    -0.110397
     19 C                    -0.333046
     20 N                    -0.583560
     21 N                    -0.594996
     22 N                    -0.583558
     23 H                     0.141934
     24 H                     0.166367
     25 H                     0.125304
     26 H                     0.135188
     27 H                     0.139691
     28 H                     0.163108
     29 H                     0.165495
     30 H                     0.140915
     31 H                     0.165496
     32 H                     0.163109
     33 H                     0.139691
     34 H                     0.135188
     35 H                     0.125305
     36 H                     0.166367
     37 H                     0.141934
  ----------------------------------------
  Sum of atomic charges =     0.000001

                    Cartesian Multipole Moments
 -----------------------------------------------------------------
    Charge (ESU x 10^10)
                 0.0000
    Dipole Moment (Debye)
         X      -0.0000      Y       1.4462      Z       0.1239
       Tot       1.4515
    Quadrupole Moments (Debye-Ang)
        XX    -106.2296     XY       0.0000     YY    -108.4058
        XZ      -0.0002     YZ      -0.0941     ZZ    -131.3070

 Total job time:  93.67s(wall), 93.35s(cpu)
        *  Thank you very much for using Q-Chem.  Have a nice day.  *
