 Q-Chem 5.2, Q-Chem, Inc., Pleasanton, CA (2019)
 Q-Chem 5.2.1 for Intel X86 EM64T Linux

User input:
--------------------------------------------------------------
$molecule
0 1
C        -3.52268193130000   -2.59903412110000   -0.15607846760000
C        -3.26823836180000   -1.30537816370000    0.01509168590000
C        -1.95300431580000   -0.71908116460000   -0.00416380630000
C        -0.70042387160000   -1.24774419600000   -0.18110132710000
C         0.21879154080000   -0.17221681320000   -0.08784839620000
C         1.66060095640000   -0.42429873920000   -0.19123652210000
O         2.12252873380000   -1.43533170120000   -0.66246454810000
O         2.42717479220000    0.54914573820000    0.32729483290000
C         3.82699461120000    0.31444640090000    0.28855275410000
C        -0.54680443310000    0.97003078290000    0.13061368090000
C        -0.31336543160000    2.38599620190000    0.26275292620000
C         0.82012150520000    3.05241920150000    0.06714422840000
O        -1.84792096050000    0.61717474550000    0.18162560840000
H        -4.52813907050000   -2.97959801650000   -0.13164996780000
H        -2.73708644890000   -3.31411694950000   -0.32583201580000
H        -4.07001806090000   -0.59928806930000    0.18405620630000
H        -0.43366922260000   -2.26994742760000   -0.34938932930000
H         4.29008814920000    1.15672277810000    0.79642790120000
H         4.17349022980000    0.24986133390000   -0.74536402980000
H         4.06906391440000   -0.62124585200000    0.79651332600000
H        -1.21751338070000    2.92371552020000    0.52215814330000
H         1.73524509110000    2.56159746430000   -0.20296265930000
H         0.85245576250000    4.12212248250000    0.18062969870000
$end

$rem
BASIS = 6-31G*
GUI = 2
METHOD = B3LYP
PRINT_ORBITALS false
MOLDEN_FORMAT false
--------------------------------------------------------------

             Standard Nuclear Orientation (Angstroms)
    I     Atom           X                Y                Z
 ----------------------------------------------------------------
    1      C       4.2486674103    -1.1174860709    -0.0683008744
    2      C       3.5310510635     0.0013514796    -0.0968631239
    3      C       2.0931801920     0.0547157287    -0.0365708798
    4      C       1.1284902173    -0.9151596482     0.0554305453
    5      C      -0.1245210682    -0.2516508571     0.0668776954
    6      C      -1.3688112696    -1.0279359657     0.1134836784
    7      O      -1.4138445491    -2.1840642726     0.4583896305
    8      O      -2.4525908861    -0.3545719229    -0.3061673328
    9      C      -3.6658321153    -1.0920715121    -0.3210108155
   10      C       0.1603871192     1.1092561766    -0.0062784080
   11      C      -0.5818748726     2.3443116390     0.0181706358
   12      C      -1.8761626175     2.5188948044     0.2661927414
   13      O       1.4982887930     1.2696192380    -0.0719793799
   14      H       5.3226982717    -1.0947845613    -0.1163845419
   15      H       3.7864765849    -2.0862032183     0.0044088898
   16      H       4.0116156588     0.9676562662    -0.1694967638
   17      H       1.2616319006    -1.9755818680     0.1018670509
   18      H      -4.4189876887    -0.4289175753    -0.7391086796
   19      H      -3.9390645196    -1.3955123800     0.6921436908
   20      H      -3.5579527203    -1.9877113305    -0.9360984793
   21      H       0.0537214617     3.2032005062    -0.1613951165
   22      H      -2.5389940642     1.6980230973     0.4614848298
   23      H      -2.3034161025     3.5066120781     0.2738486099
 ----------------------------------------------------------------

    9    -612.7045452648      7.21e-06  Convergence criterion met
 Total energy in the final basis set =     -612.7045452648

                    Orbital Energies (a.u.)
 --------------------------------------------------------------

 Alpha MOs
 -- Occupied --
-19.2270 -19.1950 -19.1323 -10.3170 -10.2601 -10.2474 -10.2411 -10.2032
-10.2019 -10.2010 -10.1905 -10.1878 -10.1859  -1.1325  -1.1107  -1.0171
 -0.8245  -0.8219  -0.7832  -0.7410  -0.7221  -0.6434  -0.6286  -0.5964
 -0.5652  -0.5565  -0.5209  -0.4926  -0.4873  -0.4748  -0.4704  -0.4616
 -0.4440  -0.4258  -0.4170  -0.4128  -0.4003  -0.3957  -0.3679  -0.3630
 -0.3526  -0.3254  -0.3039  -0.2971  -0.2783  -0.2709  -0.2028

          Ground-State Mulliken Net Atomic Charges

     Atom                 Charge (a.u.)
  ----------------------------------------
      1 C                    -0.343225
      2 C                    -0.122964
      3 C                     0.342003
      4 C                    -0.219693
      5 C                     0.001623
      6 C                     0.562310
      7 O                    -0.486353
      8 O                    -0.455124
      9 C                    -0.220511
     10 C                     0.317660
     11 C                    -0.138646
     12 C                    -0.336481
     13 O                    -0.480644
     14 H                     0.150923
     15 H                     0.149432
     16 H                     0.145698
     17 H                     0.163411
     18 H                     0.164371
     19 H                     0.169260
     20 H                     0.173900
     21 H                     0.146401
     22 H                     0.170880
     23 H                     0.145772
  ----------------------------------------
  Sum of atomic charges =     0.000000

                    Cartesian Multipole Moments
 -----------------------------------------------------------------
    Charge (ESU x 10^10)
                 0.0000
    Dipole Moment (Debye)
         X      -0.5216      Y       1.2556      Z      -0.5933
       Tot       1.4835
    Quadrupole Moments (Debye-Ang)
        XX     -59.2968     XY      -2.2899     YY     -74.8665
        XZ       0.5519     YZ       2.0676     ZZ     -77.3460

 Total job time:  30.07s(wall), 29.97s(cpu)
        *  Thank you very much for using Q-Chem.  Have a nice day.  *
