 Q-Chem 5.2, Q-Chem, Inc., Pleasanton, CA (2019)
 Q-Chem 5.2.1 for Intel X86 EM64T Linux

User input:
--------------------------------------------------------------
$molecule
0 1
C        -1.54430048230000   -3.77371434970000   -0.05637906580000
C        -2.12586702080000   -2.58810259650000    0.07652033350000
C        -1.46045303360000   -1.29064921800000    0.02197405260000
C        -2.23615398980000   -0.13178196470000    0.01165641630000
C        -1.67441641850000    1.14261857560000   -0.05704100760000
C        -2.47153943610000    2.36459223190000   -0.08098066970000
C        -3.77967165750000    2.46118586840000    0.12191395600000
C        -0.28221723720000    1.24481842290000   -0.10927705110000
C         0.48586118910000    0.10113332060000   -0.08417709010000
S         2.27265419750000    0.25379107540000   -0.09208685040000
C         2.67504068000000    0.39209068150000    1.67721505340000
O         2.84776511600000   -0.96791153770000   -0.58680590890000
O         2.64051683110000    1.48749704150000   -0.73231373150000
C        -0.07051631720000   -1.15649697490000   -0.02006075680000
H        -2.11633175890000   -4.68425097330000   -0.00789462440000
H        -0.48794616190000   -3.88800464250000   -0.22750140890000
H        -3.19709036350000   -2.53964393630000    0.22911118020000
H        -3.31067676430000   -0.23328311220000    0.03859998100000
H        -1.90104739980000    3.26367005540000   -0.27652397320000
H        -4.40364443680000    1.61028027220000    0.33512368410000
H        -4.28046923210000    3.41317358060000    0.08680835930000
H         0.21052852420000    2.20209318260000   -0.18250097030000
H         2.33776100830000   -0.51092751270000    2.16876783350000
H         2.17296517920000    1.26726904910000    2.06809095760000
H         3.74913186610000    0.49684200060000    1.76525231160000
H         0.58848190860000   -2.00883497800000   -0.02001202330000
$end

$rem
BASIS = 6-31G*
GUI = 2
METHOD = B3LYP
PRINT_ORBITALS false
MOLDEN_FORMAT false
--------------------------------------------------------------

             Standard Nuclear Orientation (Angstroms)
    I     Atom           X                Y                Z
 ----------------------------------------------------------------
    1      C      -1.4596267253    -3.7814320573    -0.0481933222
    2      C      -2.0511662621    -2.6011255489     0.0878751934
    3      C      -1.3995437449    -1.2973573797     0.0192239260
    4      C      -2.1868528673    -0.1463071302     0.0148185993
    5      C      -1.6388525284     1.1333215841    -0.0664904053
    6      C      -2.4483947378     2.3472061602    -0.0844758509
    7      C      -3.7545742109     2.4316230972     0.1356955215
    8      C      -0.2485741229     1.2491365908    -0.1379383780
    9      C       0.5311610316     0.1132521720    -0.1187090713
   10      S       2.3160708672     0.2836240275    -0.1513666733
   11      C       2.7408583085     0.4331314373     1.6117765578
   12      O       2.8966411696    -0.9343113370    -0.6489893841
   13      O       2.6629294177     1.5183026259    -0.8013679746
   14      C      -0.0117092735    -1.1495726897    -0.0421192923
   15      H      -2.0218270453    -4.6974025871     0.0116084680
   16      H      -0.4045848266    -3.8859169150    -0.2331232661
   17      H      -3.1206670557    -2.5626918711     0.2547361025
   18      H      -3.2598473289    -0.2583699333     0.0566808156
   19      H      -1.8896004069     3.2511033753    -0.2912559273
   20      H      -4.3670850159     1.5754359624     0.3606729758
   21      H      -4.2652856774     3.3784363121     0.1036057734
   22      H       0.2335515382     2.2109537915    -0.2215901118
   23      H       2.4192712899    -0.4711810371     2.1114007264
   24      H       2.2353761160     1.3048646978     2.0059463583
   25      H       3.8149380055     0.5489089639     1.6848767815
   26      H       0.6557126315    -1.9953129248    -0.0476139220
 ----------------------------------------------------------------

    9    -974.9288641277      6.25e-06  Convergence criterion met
 Total energy in the final basis set =     -974.9288641277

                    Orbital Energies (a.u.)
 --------------------------------------------------------------

 Alpha MOs
 -- Occupied --
-89.0891 -19.1322 -19.1322 -10.2252 -10.2201 -10.2177 -10.2172 -10.2117
-10.2115 -10.2089 -10.2044 -10.2041 -10.1947 -10.1937  -8.1191  -6.0834
 -6.0827  -6.0823  -1.1119  -1.0023  -0.8930  -0.8221  -0.8118  -0.7725
 -0.7520  -0.7425  -0.6661  -0.6477  -0.6242  -0.5705  -0.5545  -0.5352
 -0.5069  -0.4982  -0.4778  -0.4718  -0.4694  -0.4612  -0.4407  -0.4377
 -0.4295  -0.4200  -0.4033  -0.3947  -0.3853  -0.3733  -0.3581  -0.3335
 -0.3299  -0.3147  -0.3086  -0.2957  -0.2873  -0.2525  -0.2380

          Ground-State Mulliken Net Atomic Charges

     Atom                 Charge (a.u.)
  ----------------------------------------
      1 C                    -0.348707
      2 C                    -0.111950
      3 C                     0.185187
      4 C                    -0.249991
      5 C                     0.182461
      6 C                    -0.111914
      7 C                    -0.348013
      8 C                    -0.223449
      9 C                    -0.151811
     10 S                     1.077980
     11 C                    -0.625397
     12 O                    -0.523252
     13 O                    -0.521604
     14 C                    -0.210058
     15 H                     0.152313
     16 H                     0.156427
     17 H                     0.132785
     18 H                     0.136782
     19 H                     0.138882
     20 H                     0.146848
     21 H                     0.153066
     22 H                     0.174041
     23 H                     0.198886
     24 H                     0.198256
     25 H                     0.217416
     26 H                     0.174815
  ----------------------------------------
  Sum of atomic charges =     0.000000

                    Cartesian Multipole Moments
 -----------------------------------------------------------------
    Charge (ESU x 10^10)
                 0.0000
    Dipole Moment (Debye)
         X      -3.8102      Y      -0.2473      Z       3.5375
       Tot       5.2051
    Quadrupole Moments (Debye-Ang)
        XX     -89.5166     XY      -0.3126     YY     -83.5269
        XZ       9.8893     YZ       1.2511     ZZ     -91.3519

 Total job time:  42.12s(wall), 41.75s(cpu)
        *  Thank you very much for using Q-Chem.  Have a nice day.  *
