 Q-Chem 5.4, Q-Chem, Inc., Pleasanton, CA (2021)
 Q-Chem 5.4.2 for Intel X86 EM64T Linux

User input:
--------------------------------------------------------------
$molecule
0 1
C           -4.00944849040000        0.83375960670000       -0.66973837920000
C           -2.98134615170000        0.85211254320000        0.16633399230000
C           -1.89854296770000       -0.13473317710000        0.15912280510000
C           -2.20379957030000       -1.46754000810000       -0.10562433960000
C           -1.21771399120000       -2.43470269270000       -0.11572564740000
C            0.09361866030000       -2.06989532710000        0.11043235590000
C            0.42808322270000       -0.73719701580000        0.34706781750000
C            1.85830114380000       -0.44582574590000        0.51623010980000
C            2.53800206400000        0.48084914710000       -0.13383654510000
F            2.06327669010000        1.33740939190000       -1.03090769360000
F            3.84776064920000        0.68419816140000        0.01205599900000
C           -0.56962500400000        0.24041053330000        0.41288851310000
C           -0.23924327720000        1.66190211160000        0.75393081490000
H           -4.78872282030000        1.57520516870000       -0.62397476540000
H           -4.10255304970000        0.09239088020000       -1.44579207570000
H           -2.91637547040000        1.64048639840000        0.90391897500000
H           -3.23253810800000       -1.74564482700000       -0.27737307760000
H           -1.46957810650000       -3.46790520080000       -0.30175468320000
H            0.87694276920000       -2.81319504250000        0.08769113670000
H            2.42612483100000       -1.09468295350000        1.16685156450000
H            0.74603590830000        1.73940579310000        1.20557725050000
H           -0.96314202010000        2.06725204170000        1.45754538160000
H           -0.25757163780000        2.28294611910000       -0.14101774510000
$end

$rem
BASIS = 6-31G*
GUI = 2
METHOD = B3LYP
PRINT_ORBITALS false
MOLDEN_FORMAT false
$end
--------------------------------------------------------------

             Standard Nuclear Orientation (Angstroms)
    I     Atom           X                Y                Z
 ----------------------------------------------------------------
    1      C      -3.7956745618    -1.2979219847     0.5902815140
    2      C      -2.7605584088    -1.1729955458    -0.2278115089
    3      C      -1.7960029748    -0.0717579439    -0.1704724212
    4      C      -2.2530768943     1.2088442495     0.1308382938
    5      C      -1.3824373260     2.2795932856     0.1887495007
    6      C      -0.0353516151     2.0718626191    -0.0258040759
    7      C       0.4503397116     0.7937056927    -0.2985062590
    8      C       1.9064812600     0.6703362066    -0.4516994731
    9      C       2.6771563719    -0.1954432960     0.1805916614
   10      F       2.2895420635    -1.1292639777     1.0417132333
   11      F       4.0033799145    -0.2456770572     0.0513218206
   12      C      -0.4298986727    -0.2868616787    -0.4126339611
   13      C       0.0631844927    -1.6501785601    -0.7925501586
   14      H      -4.4857681173    -2.1201260037     0.5074820768
   15      H      -3.9824376920    -0.5979600749     1.3876071975
   16      H      -2.5969862104    -1.9240770972    -0.9886707408
   17      H      -3.3088742757     1.3639672738     0.2932317512
   18      H      -1.7516268800     3.2712594709     0.4028686440
   19      H       0.6588758171     2.8971298294     0.0341174862
   20      H       2.4065710339     1.4001002977    -1.0714593316
   21      H       1.0570882164    -1.6016171171    -1.2290860347
   22      H      -0.6006289924    -2.1104491052    -1.5211886812
   23      H       0.1025210018    -2.2988564256     0.0818834746
 ----------------------------------------------------------------

    9    -624.8231697487      5.28e-06  Convergence criterion met
 Total energy in the final basis set =     -624.8231697487

                    Orbital Energies (a.u.)
 --------------------------------------------------------------

 Alpha MOs
 -- Occupied --
-24.7386 -24.7322 -10.3537 -10.2003 -10.1993 -10.1970 -10.1922 -10.1890
-10.1863 -10.1846 -10.1836 -10.1795 -10.1771  -1.2811  -1.2209  -0.8719
 -0.8129  -0.7874  -0.7626  -0.7243  -0.6871  -0.6404  -0.6208  -0.5892
 -0.5733  -0.5540  -0.5203  -0.5151  -0.5005  -0.4741  -0.4536  -0.4418
 -0.4393  -0.4325  -0.4304  -0.4141  -0.4082  -0.4056  -0.3891  -0.3743
 -0.3585  -0.3426  -0.3340  -0.2963  -0.2713  -0.2321  -0.2238

          Ground-State Mulliken Net Atomic Charges

     Atom                 Charge (a.u.)
  ----------------------------------------
      1 C                    -0.335803
      2 C                    -0.130863
      3 C                     0.095403
      4 C                    -0.177068
      5 C                    -0.132335
      6 C                    -0.168773
      7 C                     0.106591
      8 C                    -0.352512
      9 C                     0.572779
     10 F                    -0.235850
     11 F                    -0.248968
     12 C                     0.080936
     13 C                    -0.533538
     14 H                     0.142105
     15 H                     0.144890
     16 H                     0.133848
     17 H                     0.129624
     18 H                     0.128269
     19 H                     0.126828
     20 H                     0.168519
     21 H                     0.155876
     22 H                     0.155976
     23 H                     0.174066
  ----------------------------------------
  Sum of atomic charges =     0.000000

                    Cartesian Multipole Moments
 -----------------------------------------------------------------
    Charge (ESU x 10^10)
                 0.0000
    Dipole Moment (Debye)
         X      -0.6837      Y       0.4792      Z      -0.4941
       Tot       0.9701
    Quadrupole Moments (Debye-Ang)
        XX     -73.5365     XY       2.4801     YY     -68.8965
        XZ      -2.5645     YZ       1.7256     ZZ     -75.0749

 Total job time:  51.34s(wall), 49.67s(cpu)
        *  Thank you very much for using Q-Chem.  Have a nice day.  *
