 Q-Chem 5.2, Q-Chem, Inc., Pleasanton, CA (2019)
 Q-Chem 5.2.1 for Intel X86 EM64T Linux

User input:
--------------------------------------------------------------
$molecule
0 1
C        -0.00642799270000    5.17934028580000   -0.10920587300000
O        -1.37938610430000    4.88797400010000   -0.18059178650000
C        -1.77304842500000    3.58244203640000   -0.14687028750000
C        -3.15984398810000    3.37944881020000   -0.22056010440000
C        -3.70024527780000    2.11519648050000   -0.17643553510000
C        -0.90284990640000    2.50588676580000   -0.04556520370000
C        -1.45338101870000    1.23173768840000   -0.02987022800000
C        -2.84723290750000    1.02264561900000   -0.07522199300000
C        -3.05273328140000   -0.39519181360000    0.01993965230000
C        -4.17575660520000   -1.20636455360000    0.01005767630000
C        -4.02457420990000   -2.57737913530000    0.09889151680000
C        -2.75331244210000   -3.15212382440000    0.18113681280000
O        -2.51665646040000   -4.49551131020000    0.25446389200000
C        -3.61115589380000   -5.37729441970000    0.23501121890000
C        -1.61158744280000   -2.35369834220000    0.19136406310000
C        -1.77089882470000   -0.98275178750000    0.12849643230000
N        -0.81054901150000    0.01260268380000    0.09406843300000
C         0.56994302700000   -0.18126525860000    0.16696202350000
C         1.11821555230000   -0.99494464520000    1.15729722340000
C         2.48179646480000   -1.18174808370000    1.22300410450000
C         3.34323996460000   -0.55982014270000    0.31459710220000
C         4.76955526730000   -0.79826843600000    0.44939651320000
C         5.76328730800000   -0.28977792930000   -0.26504491080000
F         5.68974092680000    0.56605260920000   -1.27832439960000
F         7.04340589100000   -0.58519449930000   -0.04363359800000
C         2.78531036880000    0.25399835750000   -0.67433737100000
C         1.42042042730000    0.43613527530000   -0.74907333230000
H         0.06775742710000    6.26469888170000   -0.15596262740000
H         0.54279131530000    4.74382834370000   -0.95071246030000
H         0.43259550420000    4.82790659460000    0.83057447870000
H        -3.78774748070000    4.25212840740000   -0.30093383880000
H        -4.76914741320000    1.97370445730000   -0.21553220390000
H         0.16337436480000    2.64113031200000    0.03550424450000
H        -5.16160921710000   -0.77463822300000   -0.07025313000000
H        -4.90499722570000   -3.19959630800000    0.09377128200000
H        -3.18362759010000   -6.37720922740000    0.29435940380000
H        -4.18678673420000   -5.28600332020000   -0.69192819690000
H        -4.27400408670000   -5.21772751930000    1.09190593270000
H        -0.64437580120000   -2.82728811440000    0.23412001070000
H         0.46837898450000   -1.46304073920000    1.88050285040000
H         2.89404954560000   -1.81210294410000    1.99718751110000
H         5.07228368700000   -1.47634941430000    1.23442329590000
H         3.41633274700000    0.73958976370000   -1.40037887940000
H         0.99979185660000    1.04367478890000   -1.53594476150000
$end

$rem
BASIS = 6-31G*
GUI = 2
METHOD = B3LYP
PRINT_ORBITALS false
MOLDEN_FORMAT false
--------------------------------------------------------------

             Standard Nuclear Orientation (Angstroms)
    I     Atom           X                Y                Z
 ----------------------------------------------------------------
    1      C       0.9108185789    -5.0994083687    -0.2513570692
    2      O      -0.4883337615    -5.0415723490    -0.1329004931
    3      C      -1.0885670393    -3.8185507820    -0.0661237811
    4      C      -2.4870221526    -3.8501143497     0.0486168405
    5      C      -3.2256478186    -2.6909869900     0.1049229159
    6      C      -0.4072223520    -2.6100229255    -0.1074670931
    7      C      -1.1565675164    -1.4447124953    -0.0219093049
    8      C      -2.5638364996    -1.4695268864     0.0651402150
    9      C      -2.9984931726    -0.1011242581     0.0749865913
   10      C      -4.2369663108     0.5132878779     0.1642181240
   11      C      -4.3120368900     1.8934175068     0.1701482679
   12      C      -3.1534409053     2.6722199657     0.1043888364
   13      O      -3.1392631123     4.0380734667     0.1221667769
   14      C      -4.3607136591     4.7260038844     0.2254100367
   15      C      -1.8985903833     2.0734317145     0.0153572745
   16      C      -1.8323448391     0.6937810898    -0.0163064741
   17      N      -0.7232208153    -0.1314509722    -0.0712930002
   18      C       0.6049321321     0.2896618041    -0.1569101761
   19      C       0.9839541442     1.2464276851    -1.0973260828
   20      C       2.2967875429     1.6573442183    -1.1759511030
   21      C       3.2748097840     1.1249846777    -0.3308781095
   22      C       4.6390638584     1.6016067507    -0.4759506170
   23      C       5.7233058340     1.2154966885     0.1811877784
   24      F       5.8200612813     0.2932171156     1.1323076846
   25      F       6.9314961581     1.7301236588    -0.0433845439
   26      C       2.8862416802     0.1665988984     0.6083177722
   27      C       1.5716399210    -0.2405429091     0.6963043419
   28      H       1.1607556331    -6.1587495383    -0.2833055860
   29      H       1.4079973299    -4.6374246055     0.6081952146
   30      H       1.2582985997    -4.6188569259    -1.1720971658
   31      H      -2.9629447850    -4.8170029654     0.0788900197
   32      H      -4.3016610891    -2.7288639131     0.1746444878
   33      H       0.6638539351    -2.5636213135    -0.2185515047
   34      H      -5.1371998798    -0.0780102704     0.2326932556
   35      H      -5.2808335191     2.3617705104     0.2365084151
   36      H      -4.1023484211     5.7840051231     0.2290243024
   37      H      -4.8853586870     4.4800667190     1.1544762966
   38      H      -5.0150224648     4.5181113221    -0.6276776155
   39      H      -1.0223558876     2.7003769141    -0.0123289720
   40      H       0.2451840791     1.6495153184    -1.7727274804
   41      H       2.5778790924     2.3969752097    -1.9112016298
   42      H       4.8040793999     2.3710579974    -1.2165044697
   43      H       3.6093666985    -0.2569713490     1.2856677415
   44      H       1.2789900888    -0.9599341211     1.4459920509
 ----------------------------------------------------------------

    9   -1253.4304392564      4.60e-06  Convergence criterion met
 Total energy in the final basis set =    -1253.4304392564

                    Orbital Energies (a.u.)
 --------------------------------------------------------------

 Alpha MOs
 -- Occupied --
-24.7485 -24.7377 -19.1728 -19.1713 -14.3803 -10.3607 -10.2405 -10.2397
-10.2365 -10.2363 -10.2357 -10.2195 -10.2185 -10.2119 -10.2075 -10.1992
-10.1974 -10.1970 -10.1967 -10.1839 -10.1829 -10.1805 -10.1766 -10.1759
-10.1758 -10.1756 -10.1712  -1.2891  -1.2282  -1.0628  -1.0610  -0.9993
 -0.8800  -0.8489  -0.8444  -0.8124  -0.7819  -0.7648  -0.7534  -0.7516
 -0.7391  -0.7172  -0.7070  -0.6736  -0.6571  -0.6321  -0.6310  -0.6110
 -0.6042  -0.5785  -0.5764  -0.5726  -0.5470  -0.5381  -0.5342  -0.5227
 -0.5102  -0.4958  -0.4875  -0.4754  -0.4710  -0.4674  -0.4663  -0.4626
 -0.4590  -0.4523  -0.4446  -0.4406  -0.4372  -0.4338  -0.4319  -0.4207
 -0.4167  -0.4122  -0.4071  -0.4017  -0.3860  -0.3848  -0.3709  -0.3678
 -0.3603  -0.3532  -0.3467  -0.3451  -0.3267  -0.3225  -0.3200  -0.3029
 -0.2968  -0.2650  -0.2518  -0.2393  -0.2336  -0.1943  -0.1837

          Ground-State Mulliken Net Atomic Charges

     Atom                 Charge (a.u.)
  ----------------------------------------
      1 C                    -0.210343
      2 O                    -0.509271
      3 C                     0.381316
      4 C                    -0.193231
      5 C                    -0.195405
      6 C                    -0.269728
      7 C                     0.314456
      8 C                     0.060069
      9 C                     0.064592
     10 C                    -0.207384
     11 C                    -0.216597
     12 C                     0.384690
     13 O                    -0.512811
     14 C                    -0.211685
     15 C                    -0.252109
     16 C                     0.326286
     17 N                    -0.748254
     18 C                     0.291456
     19 C                    -0.159413
     20 C                    -0.208533
     21 C                     0.203646
     22 C                    -0.299648
     23 C                     0.543908
     24 F                    -0.234927
     25 F                    -0.247270
     26 C                    -0.209299
     27 C                    -0.163110
     28 H                     0.167923
     29 H                     0.146680
     30 H                     0.150705
     31 H                     0.129568
     32 H                     0.129251
     33 H                     0.141859
     34 H                     0.129523
     35 H                     0.123440
     36 H                     0.166059
     37 H                     0.149630
     38 H                     0.148712
     39 H                     0.143866
     40 H                     0.156727
     41 H                     0.135342
     42 H                     0.161424
     43 H                     0.143804
     44 H                     0.154086
  ----------------------------------------
  Sum of atomic charges =     0.000000

                    Cartesian Multipole Moments
 -----------------------------------------------------------------
    Charge (ESU x 10^10)
                 0.0000
    Dipole Moment (Debye)
         X       0.2261      Y       1.1115      Z      -0.5814
       Tot       1.2746
    Quadrupole Moments (Debye-Ang)
        XX    -141.5584     XY     -12.3861     YY    -143.0329
        XZ      -3.3572     YZ      -2.9694     ZZ    -153.3589

 Total job time:  157.89s(wall), 155.07s(cpu)
        *  Thank you very much for using Q-Chem.  Have a nice day.  *
