 Q-Chem 5.2, Q-Chem, Inc., Pleasanton, CA (2019)
 Q-Chem 5.2.1 for Intel X86 EM64T Linux

User input:
--------------------------------------------------------------
$molecule
0 1
C        -4.47441811030000    0.65512232430000   -0.45186674040000
C        -3.69757389880000   -0.41660124040000   -0.55145540420000
C        -2.28345160690000   -0.50483832830000   -0.20645013920000
C        -1.65733289280000   -1.75160497860000   -0.23113130940000
C        -0.32246089700000   -1.87472878600000    0.09668336270000
C         0.43262375760000   -0.76956759050000    0.46108341540000
C         1.89383269650000   -0.93205817130000    0.77300522770000
C         2.77632862210000   -0.24816628140000   -0.26509288640000
O         2.38992111570000    0.24357437520000   -1.28049145250000
O         4.09047159030000   -0.25124941430000    0.04404546480000
C        -0.17256419080000    0.49430228960000    0.47799329380000
C         0.58599362270000    1.69216686440000    0.84159461840000
C         0.41084283060000    2.88451097560000    0.29147261860000
C        -1.51876293430000    0.60251493110000    0.14842908920000
H        -5.51366093910000    0.62037405850000   -0.73077218140000
H        -4.11704390880000    1.60327140590000   -0.08849076120000
H        -4.12781572880000   -1.34263502200000   -0.91405898960000
H        -2.22390313150000   -2.62915702530000   -0.50794413820000
H         0.14331472520000   -2.85021073120000    0.06649506590000
H         2.15523696910000   -1.99498716960000    0.78085309800000
H         2.12985833430000   -0.51876080440000    1.75950477320000
H         4.27947931550000   -0.68668679940000    0.88544596220000
H         1.33987952590000    1.57129436810000    1.60981178090000
H        -0.29666303050000    3.04558007160000   -0.50371881110000
H         0.99283230330000    3.73814560540000    0.59404582140000
H        -1.97530813510000    1.57893460490000    0.18007678100000
$end

$rem
BASIS = 6-31G*
GUI = 2
METHOD = B3LYP
PRINT_ORBITALS false
MOLDEN_FORMAT false
--------------------------------------------------------------

             Standard Nuclear Orientation (Angstroms)
    I     Atom           X                Y                Z
 ----------------------------------------------------------------
    1      C       4.4568810787    -0.6425873028    -0.2503051232
    2      C       3.6908917046     0.4394856617    -0.3164459449
    3      C       2.2590433629     0.5130458568    -0.0500712141
    4      C       1.6396328251     1.7630368752    -0.0198400384
    5      C       0.2880323963     1.8720407511     0.2366743127
    6      C      -0.4910537841     0.7489679387     0.4734309041
    7      C      -1.9676904192     0.8993665470     0.7095547605
    8      C      -2.7891002207     0.3002161086    -0.4264292008
    9      O      -2.3445776527    -0.1187115960    -1.4506621563
   10      O      -4.1192942609     0.2907159589    -0.1961221680
   11      C       0.1078690931    -0.5173493558     0.4329665045
   12      C      -0.6749433335    -1.7327881224     0.6618960321
   13      C      -0.4713105150    -2.8829021072     0.0367816495
   14      C       1.4709295989    -0.6114413265     0.1764779932
   15      H       5.5109896889    -0.5954646817    -0.4639773974
   16      H       4.0753788081    -1.6120533702     0.0205023080
   17      H       4.1450128911     1.3862805520    -0.5838058909
   18      H       2.2245739163     2.6541457563    -0.1973045537
   19      H      -0.1718901901     2.8506578708     0.2509233981
   20      H      -2.2255792666     1.9608352880     0.7801896846
   21      H      -2.2633738001     0.4166825897     1.6472603135
   22      H      -4.3565991929     0.6647343745     0.6624120640
   23      H      -1.4728077864    -1.6627768739     1.3910204824
   24      H       0.2817286500    -2.9906669739    -0.7248980447
   25      H      -1.0730973504    -3.7519288278     0.2407412882
   26      H       1.9215482188    -1.5910297525     0.1630671317
 ----------------------------------------------------------------

    9    -614.9109878355      4.69e-06  Convergence criterion met
 Total energy in the final basis set =     -614.9109878355

                    Orbital Energies (a.u.)
 --------------------------------------------------------------

 Alpha MOs
 -- Occupied --
-19.1953 -19.1326 -10.3183 -10.2155 -10.1995 -10.1957 -10.1939 -10.1898
-10.1893 -10.1888 -10.1867 -10.1846 -10.1790 -10.1789  -1.1041  -1.0229
 -0.8731  -0.8137  -0.7902  -0.7650  -0.7279  -0.7064  -0.6348  -0.6284
 -0.6075  -0.5706  -0.5527  -0.5221  -0.5018  -0.4950  -0.4687  -0.4594
 -0.4479  -0.4419  -0.4335  -0.4239  -0.4098  -0.3992  -0.3927  -0.3728
 -0.3692  -0.3623  -0.3432  -0.3335  -0.3194  -0.3035  -0.2835  -0.2704
 -0.2334  -0.2199

          Ground-State Mulliken Net Atomic Charges

     Atom                 Charge (a.u.)
  ----------------------------------------
      1 C                    -0.350216
      2 C                    -0.117473
      3 C                     0.190014
      4 C                    -0.194840
      5 C                    -0.190529
      6 C                     0.153939
      7 C                    -0.531632
      8 C                     0.618045
      9 O                    -0.416530
     10 O                    -0.566219
     11 C                     0.143087
     12 C                    -0.136336
     13 C                    -0.321261
     14 C                    -0.256483
     15 H                     0.144301
     16 H                     0.144522
     17 H                     0.127077
     18 H                     0.127402
     19 H                     0.122187
     20 H                     0.182408
     21 H                     0.171694
     22 H                     0.411105
     23 H                     0.122592
     24 H                     0.150975
     25 H                     0.143060
     26 H                     0.129111
  ----------------------------------------
  Sum of atomic charges =     0.000000

                    Cartesian Multipole Moments
 -----------------------------------------------------------------
    Charge (ESU x 10^10)
                 0.0000
    Dipole Moment (Debye)
         X      -0.2644      Y       1.4672      Z       3.4747
       Tot       3.7810
    Quadrupole Moments (Debye-Ang)
        XX     -74.3402     XY      -4.9208     YY     -72.6134
        XZ     -14.1012     YZ       0.1012     ZZ     -86.3369

 Total job time:  39.99s(wall), 39.46s(cpu)
        *  Thank you very much for using Q-Chem.  Have a nice day.  *
