 Q-Chem 5.2, Q-Chem, Inc., Pleasanton, CA (2019)
 Q-Chem 5.2.1 for Intel X86 EM64T Linux

User input:
--------------------------------------------------------------
$molecule
0 1
C        -3.14873183430000   -2.82144609460000   -0.00239208940000
C        -3.06664870510000   -1.49445123280000   -0.00040079610000
C        -1.83561230740000   -0.74710751280000   -0.00008685200000
C        -0.51803610780000   -1.12369502390000   -0.00131939290000
C         0.25173591060000    0.06817537860000   -0.00073208060000
C         1.71505278060000    0.07951896390000   -0.00238543540000
O         2.43937254740000    1.04677575770000   -0.00905914250000
O         2.19870459570000   -1.17676698720000    0.00449629630000
C         3.61167489130000   -1.29104336690000    0.00268607130000
C        -0.66734790880000    1.11727779960000    0.00104966190000
C        -0.60547997320000    2.55606612500000    0.00364503000000
C         0.48759833950000    3.31424193300000    0.00309781760000
O        -1.91262624320000    0.60545324700000    0.00152995030000
H        -4.09973995160000   -3.32331006570000   -0.00262730820000
H        -2.27182844940000   -3.44479966930000   -0.00380900550000
H        -3.95942777080000   -0.88387626150000    0.00092217460000
H        -0.12563397300000   -2.11839092440000   -0.00264516530000
H         3.83041360730000   -2.35565193560000    0.02093416530000
H         4.03497930690000   -0.79680842960000    0.87993741480000
H         4.03000564330000   -0.82857288950000   -0.89408460330000
H        -1.58975205190000    3.00929368180000    0.00625650380000
H         1.47401948660000    2.88788895440000    0.00003655150000
H         0.40877642750000    4.38782855220000    0.00554312970000
$end

$rem
BASIS = 6-31G*
GUI = 2
METHOD = B3LYP
PRINT_ORBITALS false
MOLDEN_FORMAT false
--------------------------------------------------------------

             Standard Nuclear Orientation (Angstroms)
    I     Atom           X                Y                Z
 ----------------------------------------------------------------
    1      C       3.9093867724    -1.5962729139     0.0015771195
    2      C       3.3915800445    -0.3717195538     0.0000840531
    3      C       1.9822949493    -0.0752590065    -0.0000217310
    4      C       0.8643611567    -0.8677548938     0.0009874432
    5      C      -0.2573200764     0.0011153726     0.0008050714
    6      C      -1.6414736688    -0.4737994049     0.0023732672
    7      O      -2.6457379309     0.1982673422     0.0093695113
    8      O      -1.6808071118    -1.8193918874    -0.0050144619
    9      C      -2.9757791933    -2.3960997062    -0.0033339575
   10      C       0.2615241319     1.2957709469    -0.0005226243
   11      C      -0.2743127267     2.6324911371    -0.0025761334
   12      C      -1.5570526273     2.9849522140    -0.0018082190
   13      O       1.6060848479     1.2262090572    -0.0011208844
   14      H       4.9730484000    -1.7540951918     0.0016801536
   15      H       3.2890439771    -2.4753091928     0.0027040270
   16      H       4.0311395309     0.5005307510    -0.0009527846
   17      H       0.8242957283    -1.9363029901     0.0019120008
   18      H      -2.8288230691    -3.4729592751    -0.0219991614
   19      H      -3.5391706509    -2.0700193485    -0.8804236833
   20      H      -3.5238165711    -2.0990037665     0.8935864617
   21      H       0.5037718406     3.3866743425    -0.0049555525
   22      H      -2.3460830133     2.2554072177     0.0010310528
   23      H      -1.8389771876     4.0238562086    -0.0038415688
 ----------------------------------------------------------------

    9    -612.7087668134      6.95e-06  Convergence criterion met
 Total energy in the final basis set =     -612.7087668134

                    Orbital Energies (a.u.)
 --------------------------------------------------------------

 Alpha MOs
 -- Occupied --
-19.2275 -19.1917 -19.1344 -10.3175 -10.2608 -10.2472 -10.2392 -10.2025
-10.2024 -10.1961 -10.1912 -10.1882 -10.1789  -1.1332  -1.1092  -1.0172
 -0.8244  -0.8227  -0.7821  -0.7373  -0.7210  -0.6457  -0.6267  -0.5972
 -0.5606  -0.5483  -0.5204  -0.4923  -0.4875  -0.4714  -0.4705  -0.4635
 -0.4415  -0.4319  -0.4152  -0.4110  -0.3997  -0.3933  -0.3655  -0.3593
 -0.3567  -0.3252  -0.3027  -0.2959  -0.2739  -0.2737  -0.2019

          Ground-State Mulliken Net Atomic Charges

     Atom                 Charge (a.u.)
  ----------------------------------------
      1 C                    -0.344276
      2 C                    -0.122255
      3 C                     0.339624
      4 C                    -0.225470
      5 C                    -0.014747
      6 C                     0.585421
      7 O                    -0.497675
      8 O                    -0.455976
      9 C                    -0.214072
     10 C                     0.327901
     11 C                    -0.143523
     12 C                    -0.355474
     13 O                    -0.480889
     14 H                     0.150647
     15 H                     0.146273
     16 H                     0.146202
     17 H                     0.158935
     18 H                     0.163527
     19 H                     0.169103
     20 H                     0.168595
     21 H                     0.143403
     22 H                     0.211915
     23 H                     0.142809
  ----------------------------------------
  Sum of atomic charges =     0.000000

                    Cartesian Multipole Moments
 -----------------------------------------------------------------
    Charge (ESU x 10^10)
                 0.0000
    Dipole Moment (Debye)
         X       0.8076      Y      -1.4649      Z      -0.0106
       Tot       1.6728
    Quadrupole Moments (Debye-Ang)
        XX     -69.7499     XY       4.0691     YY     -65.1790
        XZ       0.0465     YZ      -0.0236     ZZ     -76.9796

 Total job time:  29.92s(wall), 29.82s(cpu)
        *  Thank you very much for using Q-Chem.  Have a nice day.  *
