 Q-Chem 5.2, Q-Chem, Inc., Pleasanton, CA (2019)
 Q-Chem 5.2.1 for Intel X86 EM64T Linux

User input:
--------------------------------------------------------------
$molecule
0 1
C        -4.64766030350000    0.18140296810000    0.51759250410000
C        -3.74182602130000   -0.77048408800000    0.32868796890000
C        -2.32682196400000   -0.58592242290000    0.03001652600000
C        -1.51882936160000   -1.71099328030000   -0.14548496790000
C        -0.18112411360000   -1.57572982320000   -0.45054922370000
C         0.40994596000000   -0.32411837810000   -0.56727655160000
C         1.86567049580000   -0.23896739030000   -0.93129468420000
C         2.76817719710000   -0.40629979310000    0.28530203620000
O         2.41032639490000   -0.78046525760000    1.36047007290000
O         4.06471508090000   -0.11061857120000    0.05455129070000
C        -0.37508635070000    0.81565870130000   -0.36300975560000
C         0.15285137590000    2.18429956650000   -0.42281712240000
C         1.25484660190000    2.60882661250000    0.17770079780000
C        -1.73205795400000    0.66539072080000   -0.09528761080000
H        -5.67411784310000   -0.05936123020000    0.73517932230000
H        -4.41285138310000    1.23070505530000    0.46700581780000
H        -4.05122137050000   -1.80662981230000    0.39670491240000
H        -1.94983069550000   -2.69726090100000   -0.05088114970000
H         0.42413803520000   -2.45852058730000   -0.59869709180000
H         2.08626184090000    0.71693753730000   -1.41414887770000
H         2.11763250890000   -1.04876225490000   -1.62471160520000
H         4.22917121060000    0.17850397900000   -0.85229495030000
H        -0.46765504950000    2.88926018580000   -0.96418472300000
H         1.86506690450000    1.95774257310000    0.78114454870000
H         1.56608936620000    3.63884056960000    0.12369036690000
H        -2.32561365080000    1.55693975860000    0.04013460720000
$end

$rem
BASIS = 6-31G*
GUI = 2
METHOD = B3LYP
PRINT_ORBITALS false
MOLDEN_FORMAT false
--------------------------------------------------------------

             Standard Nuclear Orientation (Angstroms)
    I     Atom           X                Y                Z
 ----------------------------------------------------------------
    1      C       4.6039994189    -0.4594470315     0.4509737804
    2      C       3.7614358233     0.5449906609     0.2424044941
    3      C       2.3310483145     0.4475460221    -0.0221710870
    4      C       1.5981892405     1.6183773281    -0.2259083806
    5      C       0.2481314748     1.5645017447    -0.5002388097
    6      C      -0.4293961274     0.3532077430    -0.5571905452
    7      C      -1.8950136775     0.3552356016    -0.8901393408
    8      C      -2.7576684668     0.6298601832     0.3358435761
    9      O      -2.3521100780     1.0183568374     1.3887614464
   10      O      -4.0760239869     0.4159977961     0.1412019114
   11      C       0.2801746634    -0.8296233666    -0.3237118471
   12      C      -0.3411524982    -2.1598169203    -0.3204484070
   13      C      -1.4564223964    -2.4844821750     0.3167360167
   14      C       1.6496725482    -0.7635161809    -0.0876336218
   15      H       5.6489347595    -0.2821737291     0.6396820565
   16      H       4.2970536616    -1.4911853376     0.4455440645
   17      H       4.1422523627     1.5591143097     0.2643530030
   18      H       2.0974644131     2.5753733647    -0.1777550862
   19      H      -0.2984746517     2.4808241692    -0.6710736704
   20      H      -2.1906777439    -0.6005372926    -1.3313239721
   21      H      -2.1059130024     1.1540038196    -1.6095630086
   22      H      -4.2792640025     0.1052196653    -0.7504921067
   23      H       0.2180040594    -2.9256905148    -0.8456704163
   24      H      -2.0076660141    -1.7707082103     0.9058716597
   25      H      -1.8383622894    -3.4918417447     0.3085780561
   26      H       2.1837310625    -1.6882372230     0.0710475893
 ----------------------------------------------------------------

    9    -614.9109471791      4.43e-06  Convergence criterion met
 Total energy in the final basis set =     -614.9109471791

                    Orbital Energies (a.u.)
 --------------------------------------------------------------

 Alpha MOs
 -- Occupied --
-19.1960 -19.1343 -10.3190 -10.2102 -10.2004 -10.1985 -10.1965 -10.1952
-10.1903 -10.1879 -10.1874 -10.1873 -10.1861 -10.1800  -1.1051  -1.0240
 -0.8743  -0.8151  -0.7907  -0.7648  -0.7347  -0.7067  -0.6320  -0.6255
 -0.6131  -0.5829  -0.5442  -0.5209  -0.5066  -0.4905  -0.4718  -0.4623
 -0.4552  -0.4414  -0.4336  -0.4215  -0.4181  -0.3987  -0.3890  -0.3768
 -0.3719  -0.3614  -0.3452  -0.3350  -0.3186  -0.3051  -0.2831  -0.2733
 -0.2385  -0.2218

          Ground-State Mulliken Net Atomic Charges

     Atom                 Charge (a.u.)
  ----------------------------------------
      1 C                    -0.350974
      2 C                    -0.115086
      3 C                     0.188172
      4 C                    -0.194997
      5 C                    -0.168323
      6 C                     0.161564
      7 C                    -0.524789
      8 C                     0.612887
      9 O                    -0.426813
     10 O                    -0.565485
     11 C                     0.108954
     12 C                    -0.148120
     13 C                    -0.351886
     14 C                    -0.250807
     15 H                     0.144962
     16 H                     0.143296
     17 H                     0.127540
     18 H                     0.129813
     19 H                     0.127687
     20 H                     0.174277
     21 H                     0.182143
     22 H                     0.413348
     23 H                     0.140240
     24 H                     0.169711
     25 H                     0.146038
     26 H                     0.126650
  ----------------------------------------
  Sum of atomic charges =     0.000000

                    Cartesian Multipole Moments
 -----------------------------------------------------------------
    Charge (ESU x 10^10)
                 0.0000
    Dipole Moment (Debye)
         X       0.0326      Y      -1.2081      Z      -3.7371
       Tot       3.9276
    Quadrupole Moments (Debye-Ang)
        XX     -74.8537     XY       4.2169     YY     -74.7231
        XZ      12.4777     YZ      -3.0777     ZZ     -86.2328

 Total job time:  39.59s(wall), 39.39s(cpu)
        *  Thank you very much for using Q-Chem.  Have a nice day.  *
