 Q-Chem 5.2, Q-Chem, Inc., Pleasanton, CA (2019)
 Q-Chem 5.2.1 for Intel X86 EM64T Linux

User input:
--------------------------------------------------------------
$molecule
0 1
C         0.70456430660000   -3.38906119850000    2.60370691620000
C         1.37888566060000   -2.31983087660000    2.20159128330000
C         0.82842150670000   -1.25116972730000    1.36832325200000
C        -0.15879092460000   -1.54029773380000    0.43129076000000
C        -0.72005394030000   -0.58251690610000   -0.40041845630000
C        -1.82647533310000   -0.99872319220000   -1.33098171150000
C        -3.06166985560000   -1.48337232020000   -0.55965862040000
C        -3.63515130450000   -0.43363312890000    0.39235981650000
C        -4.12754101580000    0.84992585860000   -0.27933665630000
C        -5.21433430090000    0.65325943450000   -1.33722185720000
C        -6.49120369650000    0.03377833650000   -0.78123223270000
C        -0.27410329280000    0.73689615390000   -0.28282665200000
C        -0.72672575630000    1.84418865260000   -1.13445615680000
C        -0.71276125500000    1.83730735580000   -2.45892662350000
C         0.68394764480000    1.03728221020000    0.68301251380000
C         1.26779724290000    0.07579272730000    1.48913849170000
C         2.34548409410000    0.48623464650000    2.45326301430000
C         3.76671029430000    0.26904115430000    1.90547302300000
C         4.04036363410000    1.01052924180000    0.59260538160000
C         3.70931406180000    0.16978759160000   -0.64203119970000
C         3.62219490930000    0.99472015630000   -1.92553758800000
C         4.94270428180000    1.65171930070000   -2.31012661540000
H         1.16257397380000   -4.14814322470000    3.21503364710000
H        -0.33233819130000   -3.54317139410000    2.35572429300000
H         2.40784819080000   -2.20422638960000    2.51221424600000
H        -0.48131505310000   -2.56588685100000    0.32610873990000
H        -1.47310088860000   -1.81555364580000   -1.96696868520000
H        -2.11289734890000   -0.17135485320000   -1.97660888160000
H        -2.79602096480000   -2.36400416820000    0.02955130970000
H        -3.82483124170000   -1.79122523870000   -1.27662223870000
H        -2.86229540740000   -0.16222318400000    1.11630955370000
H        -4.45788218930000   -0.88547095130000    0.95044087190000
H        -3.28007517040000    1.36004879050000   -0.74072735860000
H        -4.51698703030000    1.50926706350000    0.50110380960000
H        -4.83284686560000    0.03310242460000   -2.15017664730000
H        -5.45308498090000    1.63158946550000   -1.76252532970000
H        -6.31691292240000   -0.98445702870000   -0.44329000260000
H        -7.26369662330000    0.00816777030000   -1.54689978510000
H        -6.86161149210000    0.61680274680000    0.05947478510000
H        -1.01571003860000    2.74483718730000   -0.60416403690000
H        -0.37747599830000    0.98057006130000   -3.01985335060000
H        -1.01860703830000    2.69548006290000   -3.03399496300000
H         1.00110074130000    2.06678214900000    0.78191799020000
H         2.24026175110000   -0.06513750320000    3.39019441250000
H         2.22764193160000    1.54838719020000    2.68114362310000
H         3.95096394150000   -0.79583087910000    1.75241627610000
H         4.46616044390000    0.61581218870000    2.67041244200000
H         5.09524988320000    1.28945993570000    0.55755200580000
H         3.45733925820000    1.93292154180000    0.56933431340000
H         2.75089305450000   -0.32891554480000   -0.49286098080000
H         4.47040618250000   -0.60566416660000   -0.76162914360000
H         2.85297338170000    1.76134836930000   -1.80478107710000
H         3.30285426170000    0.33769893910000   -2.73823215330000
H         5.24421694990000    2.38479464300000   -1.56650749910000
H         4.84837190040000    2.15928177840000   -3.26769420880000
H         5.72830985170000    0.90367422140000   -2.39514506120000
$end

$rem
BASIS = 6-31G*
GUI = 2
METHOD = B3LYP
PRINT_ORBITALS false
MOLDEN_FORMAT false
--------------------------------------------------------------

             Standard Nuclear Orientation (Angstroms)
    I     Atom           X                Y                Z
 ----------------------------------------------------------------
    1      C      -0.8031085692    -4.1782198962     0.9417700386
    2      C      -1.4902283073    -3.1433516595     0.4763949749
    3      C      -0.9143556085    -1.8396989128     0.1473916320
    4      C       0.1860623894    -1.3680646001     0.8565140366
    5      C       0.7789866376    -0.1387849025     0.6086980406
    6      C       2.0044136084     0.2392178795     1.3953279275
    7      C       3.1726395251    -0.7161132695     1.1158280170
    8      C       3.5742243462    -0.7713596750    -0.3582309751
    9      C       4.0619224401     0.5540855331    -0.9468675553
   10      C       5.2691220974     1.1728924779    -0.2407051254
   11      C       6.5105207699     0.2895330258    -0.2840890058
   12      C       0.2460300850     0.6580678698    -0.4084222118
   13      C       0.7246062661     2.0053450069    -0.7431545529
   14      C       0.8582225680     2.9996279326     0.1217226201
   15      C      -0.8293171267     0.1707782710    -1.1480950429
   16      C      -1.4415905762    -1.0406245103    -0.8782691812
   17      C      -2.6418986508    -1.4490082914    -1.6856667455
   18      C      -3.9782886054    -1.1138800197    -1.0009173531
   19      C      -4.1475397166     0.3742052182    -0.6764661790
   20      C      -3.6326495142     0.7382966478     0.7174826507
   21      C      -3.4521459288     2.2425427406     0.9178679788
   22      C      -4.7580740580     3.0233182808     0.8270776952
   23      H      -1.2807948413    -5.1158237019     1.1707103773
   24      H       0.2621667008    -4.1396021503     1.0970420345
   25      H      -2.5523207350    -3.2547875272     0.3085955901
   26      H       0.5779376080    -1.9759829451     1.6588775496
   27      H       1.7724238192     0.1989942938     2.4635637253
   28      H       2.3116698665     1.2552615795     1.1572960516
   29      H       2.8953841327    -1.7255112182     1.4280704793
   30      H       4.0274446888    -0.4124052719     1.7227012615
   31      H       2.7111657994    -1.1037875909    -0.9410640930
   32      H       4.3550045498    -1.5256886692    -0.4759935888
   33      H       3.2424441946     1.2748909657    -0.9327226477
   34      H       4.3229066784     0.3805332530    -1.9943660884
   35      H       5.0173426770     1.3962799931     0.7974316732
   36      H       5.4957553298     2.1240533469    -0.7295250920
   37      H       6.3598806804    -0.6248918599     0.2838195921
   38      H       7.3634172163     0.8145930236     0.1407964779
   39      H       6.7504073264     0.0213865224    -1.3109578292
   40      H       0.8995298815     2.1831166001    -1.7984689232
   41      H       0.6381876589     2.8758453225     1.1692512796
   42      H       1.1751051172     3.9818110558    -0.1874818368
   43      H      -1.2153965787     0.7857466360    -1.9499647772
   44      H      -2.6091657481    -2.5214445133    -1.8899521851
   45      H      -2.6126667095    -0.9296360360    -2.6465945925
   46      H      -4.0815546017    -1.6884008496    -0.0786428973
   47      H      -4.7774996811    -1.4311256661    -1.6756245735
   48      H      -5.2065585695     0.6315579024    -0.7402214523
   49      H      -3.6207154009     0.9700266294    -1.4239416013
   50      H      -2.6690972833     0.2552254059     0.8840259586
   51      H      -4.3288962815     0.3546058476     1.4677573487
   52      H      -2.7474446349     2.6192044513     0.1725326499
   53      H      -3.0065121154     2.4096489696     1.9015416026
   54      H      -5.1828172992     2.9573277857    -0.1711793710
   55      H      -4.5879687047     4.0734927974     1.0543476148
   56      H      -5.4840891698     2.6326547357     1.5371901794
 ----------------------------------------------------------------

    8    -858.7905612982      6.44e-06  Convergence criterion met
 Total energy in the final basis set =     -858.7905612982

                    Orbital Energies (a.u.)
 --------------------------------------------------------------

 Alpha MOs
 -- Occupied --
-10.1897 -10.1881 -10.1875 -10.1868 -10.1857 -10.1853 -10.1805 -10.1797
-10.1778 -10.1774 -10.1771 -10.1766 -10.1737 -10.1721 -10.1696 -10.1687
-10.1660 -10.1652 -10.1645 -10.1640 -10.1620 -10.1616  -0.8697  -0.8199
 -0.8016  -0.8009  -0.7794  -0.7704  -0.7584  -0.7353  -0.7146  -0.7057
 -0.6848  -0.6543  -0.6362  -0.6291  -0.6076  -0.5856  -0.5824  -0.5634
 -0.5565  -0.5388  -0.5319  -0.4889  -0.4840  -0.4740  -0.4640  -0.4625
 -0.4597  -0.4426  -0.4397  -0.4339  -0.4260  -0.4210  -0.4169  -0.4156
 -0.4091  -0.4004  -0.3940  -0.3867  -0.3799  -0.3760  -0.3716  -0.3679
 -0.3578  -0.3544  -0.3509  -0.3472  -0.3393  -0.3358  -0.3311  -0.3254
 -0.3203  -0.3161  -0.3126  -0.3051  -0.3011  -0.3006  -0.2968  -0.2931
 -0.2622  -0.2325  -0.2128

          Ground-State Mulliken Net Atomic Charges

     Atom                 Charge (a.u.)
  ----------------------------------------
      1 C                    -0.339273
      2 C                    -0.132141
      3 C                     0.117333
      4 C                    -0.258333
      5 C                     0.131849
      6 C                    -0.356217
      7 C                    -0.261093
      8 C                    -0.262290
      9 C                    -0.264901
     10 C                    -0.252169
     11 C                    -0.443701
     12 C                     0.096451
     13 C                    -0.149945
     14 C                    -0.327368
     15 C                    -0.248791
     16 C                     0.120623
     17 C                    -0.356842
     18 C                    -0.264369
     19 C                    -0.257894
     20 C                    -0.258678
     21 C                    -0.254217
     22 C                    -0.443305
     23 H                     0.141326
     24 H                     0.143905
     25 H                     0.135715
     26 H                     0.125696
     27 H                     0.139619
     28 H                     0.155944
     29 H                     0.129486
     30 H                     0.133313
     31 H                     0.141257
     32 H                     0.128960
     33 H                     0.142102
     34 H                     0.122646
     35 H                     0.133440
     36 H                     0.128107
     37 H                     0.146800
     38 H                     0.140180
     39 H                     0.140924
     40 H                     0.141094
     41 H                     0.151485
     42 H                     0.142904
     43 H                     0.119762
     44 H                     0.144468
     45 H                     0.142215
     46 H                     0.141293
     47 H                     0.130940
     48 H                     0.133683
     49 H                     0.128335
     50 H                     0.154244
     51 H                     0.121443
     52 H                     0.135218
     53 H                     0.125833
     54 H                     0.145085
     55 H                     0.139298
     56 H                     0.138551
  ----------------------------------------
  Sum of atomic charges =     0.000000

                    Cartesian Multipole Moments
 -----------------------------------------------------------------
    Charge (ESU x 10^10)
                -0.0000
    Dipole Moment (Debye)
         X      -0.1335      Y       0.0497      Z      -0.1389
       Tot       0.1990
    Quadrupole Moments (Debye-Ang)
        XX    -138.7548     XY       3.3318     YY    -135.2935
        XZ       2.7525     YZ      -2.1556     ZZ    -136.5218

 Total job time:  145.18s(wall), 144.53s(cpu)
        *  Thank you very much for using Q-Chem.  Have a nice day.  *
