 Q-Chem 5.4, Q-Chem, Inc., Pleasanton, CA (2021)
 Q-Chem 5.4.2 for Intel X86 EM64T Linux

User input:
--------------------------------------------------------------
$molecule
0 1
C            1.00792896400000        3.72299792950000       -0.96243340430000
C            1.06732896800000        2.50084349530000       -0.44990750650000
C           -0.08010150880000        1.61797492040000       -0.25108555400000
C           -1.35283029080000        2.12828877110000       -0.01107805080000
C           -2.43141056740000        1.29576698440000        0.21623137170000
C           -2.28653816040000       -0.08457311990000        0.20329702650000
C           -3.43158965020000       -1.01979276930000        0.42672269850000
C           -1.01231843090000       -0.58460093790000       -0.03700522060000
F           -0.86108122710000       -1.92607978010000       -0.09938212850000
C            0.09768831050000        0.22380958900000       -0.25386205490000
C            1.40948262350000       -0.36969383730000       -0.53315317820000
C            1.95086658280000       -1.35210697590000        0.16639614780000
F            1.46098335920000       -1.91166418330000        1.26096947560000
F            3.13449359560000       -1.89125162260000       -0.11415092590000
H            1.89098408470000        4.32740926450000       -1.07754600680000
H            0.08461709730000        4.16056080820000       -1.30233548490000
H            2.02464418310000        2.09474785300000       -0.15072998050000
H           -1.49204970790000        3.19742511090000        0.02180986780000
H           -3.40557537160000        1.72019280220000        0.40795578120000
H           -4.32828062690000       -0.47259940990000        0.70324137560000
H           -3.18854822030000       -1.73193439340000        1.21370496590000
H           -3.63135618690000       -1.59114841540000       -0.47948677340000
H            1.97120275280000        0.00872379170000       -1.37326296510000
$end

$rem
BASIS = 6-31G*
GUI = 2
METHOD = B3LYP
PRINT_ORBITALS false
MOLDEN_FORMAT false
$end
--------------------------------------------------------------

             Standard Nuclear Orientation (Angstroms)
    I     Atom           X                Y                Z
 ----------------------------------------------------------------
    1      C       1.2834319357    -3.6909888696    -0.1441139331
    2      C       0.5021140188    -2.6543251027     0.1292780279
    3      C       0.9124225652    -1.2534512703     0.0601174104
    4      C       2.2325536236    -0.8740256344     0.2862867180
    5      C       2.6149290929     0.4530808797     0.2603095586
    6      C       1.6954199938     1.4588149085    -0.0033117516
    7      C       2.0722781139     2.9047280364    -0.0581836174
    8      C       0.3800696766     1.0703320914    -0.2276854389
    9      F      -0.5198377827     2.0316070299    -0.5317349612
   10      C      -0.0423169538    -0.2537101803    -0.1934651281
   11      C      -1.4408107478    -0.5978479881    -0.4706626128
   12      C      -2.4826423645     0.0090522196     0.0714263523
   13      F      -2.4582146614     0.9567327266     0.9947277954
   14      F      -3.7453467433    -0.3043901450    -0.2072994126
   15      H       0.9223684760    -4.7020317390    -0.0681151589
   16      H       2.3029833913    -3.5734356996    -0.4699905693
   17      H      -0.5249751891    -2.8246644735     0.4241433222
   18      H       2.9656902672    -1.6327821807     0.5105975284
   19      H       3.6446836888     0.7183702493     0.4477118328
   20      H       3.1067033440     3.0454228975     0.2419950935
   21      H       1.4260934466     3.4877289310     0.5961184927
   22      H       1.9424892940     3.2878791763    -1.0700727500
   23      H      -1.6401377586    -1.3919882053    -1.1736020966
 ----------------------------------------------------------------

    9    -724.0627358365      5.40e-06  Convergence criterion met
 Total energy in the final basis set =     -724.0627358365

                    Orbital Energies (a.u.)
 --------------------------------------------------------------

 Alpha MOs
 -- Occupied --
-24.7374 -24.7336 -24.7065 -10.3566 -10.2674 -10.2087 -10.2017 -10.2014
-10.2011 -10.1940 -10.1926 -10.1884 -10.1856 -10.1849  -1.2827  -1.2228
 -1.2172  -0.8783  -0.8178  -0.7991  -0.7536  -0.7400  -0.6922  -0.6467
 -0.6205  -0.6078  -0.5754  -0.5673  -0.5357  -0.5176  -0.5158  -0.4954
 -0.4782  -0.4644  -0.4521  -0.4407  -0.4363  -0.4329  -0.4267  -0.4167
 -0.4111  -0.4032  -0.3938  -0.3729  -0.3621  -0.3620  -0.3397  -0.2931
 -0.2829  -0.2327  -0.2238

          Ground-State Mulliken Net Atomic Charges

     Atom                 Charge (a.u.)
  ----------------------------------------
      1 C                    -0.339504
      2 C                    -0.127608
      3 C                     0.117647
      4 C                    -0.189263
      5 C                    -0.179455
      6 C                     0.103123
      7 C                    -0.520975
      8 C                     0.267607
      9 F                    -0.290233
     10 C                     0.023529
     11 C                    -0.336120
     12 C                     0.579131
     13 F                    -0.231226
     14 F                    -0.246391
     15 H                     0.145988
     16 H                     0.145853
     17 H                     0.141637
     18 H                     0.130390
     19 H                     0.128711
     20 H                     0.155265
     21 H                     0.172829
     22 H                     0.172342
     23 H                     0.176725
  ----------------------------------------
  Sum of atomic charges =     0.000000

                    Cartesian Multipole Moments
 -----------------------------------------------------------------
    Charge (ESU x 10^10)
                 0.0000
    Dipole Moment (Debye)
         X       1.7443      Y      -0.7808      Z      -0.1533
       Tot       1.9172
    Quadrupole Moments (Debye-Ang)
        XX     -75.4319     XY       3.0046     YY     -72.9790
        XZ       0.7405     YZ       0.6126     ZZ     -79.8747

 Total job time:  64.46s(wall), 57.59s(cpu)
        *  Thank you very much for using Q-Chem.  Have a nice day.  *
