 Q-Chem 5.2, Q-Chem, Inc., Pleasanton, CA (2019)
 Q-Chem 5.2.1 for Intel X86 EM64T Linux

User input:
--------------------------------------------------------------
$molecule
0 1
C        -5.66015046500000   -2.29345245950000    1.41865275000000
C        -5.38016660820000   -1.55761718480000    0.34882308080000
C        -4.08280482180000   -1.01156516320000   -0.01821698900000
C        -3.97119728500000   -0.21402658810000   -1.15723122500000
C        -2.76348341520000    0.33105163510000   -1.54256537870000
C        -1.60673901980000    0.12504576840000   -0.78985063790000
C        -1.71782240000000   -0.68572028100000    0.34414369180000
C        -2.92076296700000   -1.24758195330000    0.71763217640000
S        -0.30621608930000   -0.95950638020000    1.38264904290000
C         0.96817745030000   -0.84702077040000    0.15186372140000
C         2.14118893930000   -1.54157970450000    0.36221466390000
C         3.20492398370000   -1.44204036840000   -0.53508469750000
C         4.47414080270000   -2.12616951270000   -0.34249373070000
C         4.81796583740000   -2.89016320040000    0.68823948180000
C         3.01966227570000   -0.64539671580000   -1.66533262730000
C         1.83988741770000    0.03572311330000   -1.88372510100000
C         0.78927036560000   -0.02958977780000   -0.96772232660000
N        -0.38953943550000    0.68437924430000   -1.16127367920000
C        -0.35154784770000    1.96345534240000   -1.83922162840000
C         0.67173120900000    2.89831824450000   -1.18516267590000
C         0.35960483560000    3.13932306790000    0.29193407470000
C         1.54139187180000    3.75824307970000    1.04002828180000
C         2.65543498300000    2.75758567460000    1.35968878680000
C         2.29445345260000    1.81249871430000    2.49939690910000
H        -6.65810462270000   -2.65134053470000    1.60471530010000
H        -4.91843858670000   -2.56685004730000    2.14897468780000
H        -6.17787423550000   -1.31534048660000   -0.34335482020000
H        -4.84806071020000   -0.02266749510000   -1.75902347500000
H        -2.71554183700000    0.91916464860000   -2.44618136540000
H        -2.94561193110000   -1.85645016500000    1.60711351250000
H         2.22466275550000   -2.14448466930000    1.25204664010000
H         5.18987497060000   -1.97174494880000   -1.14132989520000
H         4.15885787700000   -3.08288376930000    1.51690407280000
H         5.78731876050000   -3.35533190120000    0.73976305200000
H         3.81681339120000   -0.55854318630000   -2.38990894610000
H         1.73133579230000    0.62626199600000   -2.77994789950000
H        -1.34058013190000    2.41454118660000   -1.74138892850000
H        -0.13197995320000    1.85051593100000   -2.90917740100000
H         0.66651418640000    3.84728228410000   -1.72528928980000
H         1.66897898390000    2.46915847340000   -1.27926466180000
H         0.09315136940000    2.19534666260000    0.76787437770000
H        -0.50738855750000    3.79970706820000    0.37038125970000
H         1.18459027990000    4.18900162370000    1.97808318670000
H         1.94956922130000    4.57404262530000    0.43796292120000
H         3.55414503720000    3.31353546880000    1.63746333380000
H         2.89764966330000    2.16941008630000    0.47215828310000
H         2.09129176330000    2.37273015380000    3.40970519970000
H         3.11591066370000    1.12640277060000    2.69286216440000
H         1.41561646650000    1.22064132910000    2.25975005410000
$end

$rem
BASIS = 6-31G*
GUI = 2
METHOD = B3LYP
PRINT_ORBITALS false
MOLDEN_FORMAT false
--------------------------------------------------------------

             Standard Nuclear Orientation (Angstroms)
    I     Atom           X                Y                Z
 ----------------------------------------------------------------
    1      C      -5.9665433073    -1.6176199097     1.2801696822
    2      C      -5.5869122700    -0.8259189856     0.2834400524
    3      C      -4.2252652025    -0.4404852394    -0.0533045378
    4      C      -4.0034608083     0.4434923090    -1.1093651210
    5      C      -2.7307233182     0.8428893604    -1.4626167980
    6      C      -1.6129861244     0.3952837484    -0.7573592024
    7      C      -1.8362429675    -0.5012791238     0.2923815476
    8      C      -3.1067880423    -0.9166890175     0.6320843996
    9      S      -0.4749132928    -1.0816901872     1.2701284899
   10      C       0.7958142417    -1.0320968471     0.0314370644
   11      C       1.8550091396    -1.9079297610     0.1482208839
   12      C       2.9171841017    -1.8741480645    -0.7557866465
   13      C       4.0729794795    -2.7519423357    -0.6575544613
   14      C       4.3060260088    -3.6583309341     0.2850281550
   15      C       2.8452638681    -0.9486626310    -1.7972892076
   16      C       1.7773616365    -0.0842548888    -1.9232744792
   17      C       0.7332910689    -0.0881605493    -0.9975183331
   18      N      -0.3286983551     0.8059177513    -1.0955432973
   19      C      -0.1065264930     2.1278135224    -1.6435612544
   20      C       1.0464511245     2.8324070444    -0.9203376586
   21      C       0.7807652615     2.9654643297     0.5793382362
   22      C       2.0445514180     3.3265007535     1.3615305232
   23      C       3.0009717039     2.1469545700     1.5577986363
   24      C       2.5108145280     1.1540545467     2.6048550430
   25      H      -7.0053042675    -1.8431927898     1.4496045992
   26      H      -5.2693464934    -2.0687766974     1.9647330757
   27      H      -6.3438752357    -0.4010897209    -0.3651529388
   28      H      -4.8457399963     0.8205961837    -1.6715217880
   29      H      -2.6014754215     1.5062040176    -2.3040476090
   30      H      -3.2163194141    -1.6023638539     1.4569285757
   31      H       1.8535002600    -2.6035624932     0.9718446120
   32      H       4.7995187592    -2.6233904314    -1.4512021450
   33      H       3.6300188850    -3.8358468417     1.1034119260
   34      H       5.1966923436    -4.2626398695     0.2706796850
   35      H       3.6427801690    -0.9059993542    -2.5254044959
   36      H       1.7522143567     0.6035112622    -2.7539851796
   37      H      -1.0179599233     2.7060031940    -1.4816342923
   38      H       0.0885359318     2.0930397679    -2.7236131803
   39      H       1.1780522793     3.8217718671    -1.3632090942
   40      H       1.9692539936     2.2742196984    -1.0765367914
   41      H       0.3808534111     2.0271127806     0.9642732405
   42      H       0.0207192819     3.7338013680     0.7403563623
   43      H       1.7598041454     3.7074123095     2.3447053201
   44      H       2.5651473412     4.1308267769     0.8355458482
   45      H       3.9730809794     2.5349272706     1.8714853815
   46      H       3.1494916572     1.6227122995     0.6115213333
   47      H       2.3969306870     1.6427962130     3.5702343343
   48      H       3.2234389379     0.3395089916     2.7126993180
   49      H       1.5532782196     0.7239854059     2.3251320017
 ----------------------------------------------------------------

    9   -1306.3042670983      3.24e-06  Convergence criterion met
 Total energy in the final basis set =    -1306.3042670983

                    Orbital Energies (a.u.)
 --------------------------------------------------------------

 Alpha MOs
 -- Occupied --
-88.8895 -14.3672 -10.2356 -10.2353 -10.2258 -10.2204 -10.2191 -10.1941
-10.1923 -10.1921 -10.1917 -10.1911 -10.1902 -10.1899 -10.1890 -10.1886
-10.1877 -10.1811 -10.1771 -10.1757 -10.1701 -10.1688 -10.1669 -10.1560
 -7.9501  -5.9151  -5.9115  -5.9053  -0.9804  -0.8719  -0.8679  -0.8188
 -0.8039  -0.7983  -0.7770  -0.7638  -0.7579  -0.7361  -0.7216  -0.7081
 -0.6845  -0.6549  -0.6403  -0.6184  -0.6147  -0.5918  -0.5875  -0.5675
 -0.5548  -0.5454  -0.5423  -0.5156  -0.4879  -0.4867  -0.4733  -0.4659
 -0.4619  -0.4525  -0.4488  -0.4441  -0.4362  -0.4327  -0.4238  -0.4148
 -0.4122  -0.4046  -0.4025  -0.3955  -0.3838  -0.3798  -0.3773  -0.3717
 -0.3559  -0.3549  -0.3510  -0.3499  -0.3458  -0.3391  -0.3362  -0.3220
 -0.3114  -0.3091  -0.3083  -0.3019  -0.2982  -0.2629  -0.2602  -0.2248
 -0.2191  -0.1794

          Ground-State Mulliken Net Atomic Charges

     Atom                 Charge (a.u.)
  ----------------------------------------
      1 C                    -0.355866
      2 C                    -0.116665
      3 C                     0.200015
      4 C                    -0.215845
      5 C                    -0.164202
      6 C                     0.314305
      7 C                    -0.110055
      8 C                    -0.250216
      9 S                     0.162602
     10 C                    -0.110924
     11 C                    -0.248212
     12 C                     0.201185
     13 C                    -0.117260
     14 C                    -0.354806
     15 C                    -0.216839
     16 C                    -0.165549
     17 C                     0.313137
     18 N                    -0.578461
     19 C                    -0.156034
     20 C                    -0.287009
     21 C                    -0.267538
     22 C                    -0.251851
     23 C                    -0.258144
     24 C                    -0.459208
     25 H                     0.142638
     26 H                     0.142134
     27 H                     0.124758
     28 H                     0.128716
     29 H                     0.135673
     30 H                     0.141519
     31 H                     0.142617
     32 H                     0.125377
     33 H                     0.142765
     34 H                     0.143404
     35 H                     0.129908
     36 H                     0.135017
     37 H                     0.160630
     38 H                     0.141416
     39 H                     0.135952
     40 H                     0.157594
     41 H                     0.167996
     42 H                     0.126351
     43 H                     0.127897
     44 H                     0.122509
     45 H                     0.127188
     46 H                     0.141408
     47 H                     0.135922
     48 H                     0.140275
     49 H                     0.173777
  ----------------------------------------
  Sum of atomic charges =     0.000000

                    Cartesian Multipole Moments
 -----------------------------------------------------------------
    Charge (ESU x 10^10)
                 0.0000
    Dipole Moment (Debye)
         X       0.2077      Y       1.4631      Z      -1.7673
       Tot       2.3037
    Quadrupole Moments (Debye-Ang)
        XX    -143.3175     XY      -3.2253     YY    -148.4591
        XZ      -1.5662     YZ      -7.8737     ZZ    -146.7538

 Total job time:  162.47s(wall), 162.04s(cpu)
        *  Thank you very much for using Q-Chem.  Have a nice day.  *
