 Q-Chem 5.2, Q-Chem, Inc., Pleasanton, CA (2019)
 Q-Chem 5.2.1 for Intel X86 EM64T Linux

User input:
--------------------------------------------------------------
$molecule
0 1
C         3.85980012230000   -0.58233493340000   -0.18375441610000
C         3.09212487770000    0.47128158400000    0.06749325230000
C         1.63455664780000    0.50780266600000    0.04775677490000
C         0.99171940220000    1.74957034370000    0.09529436580000
C        -0.38242108770000    1.83270766620000    0.06036850150000
C        -1.15177530340000    0.67102628820000   -0.01135090280000
C        -2.55775014240000    0.79519137890000   -0.04250170520000
N        -3.69752593410000    0.92575621950000   -0.07033667080000
C        -0.53401607650000   -0.59458305330000   -0.03785990500000
C        -1.36453155390000   -1.79279970550000   -0.09670584050000
C        -0.96851015740000   -3.02797292970000    0.18537418170000
C         0.85462542330000   -0.64461577480000   -0.01413080270000
H         4.93329436660000   -0.51129985810000   -0.15130421730000
H         3.46077879190000   -1.54871493600000   -0.44055828810000
H         3.56158469250000    1.42007864240000    0.29700236840000
H         1.58161014880000    2.65301382240000    0.14894405760000
H        -0.87690107890000    2.79291618160000    0.08826043310000
H        -2.39668435030000   -1.61747915270000   -0.37411311510000
H         0.03429322500000   -3.26252454580000    0.50048313600000
H        -1.64969395070000   -3.85875537680000    0.12397721820000
H         1.33887822540000   -1.60678236520000   -0.04921229830000
$end

$rem
BASIS = 6-31G*
GUI = 2
METHOD = B3LYP
PRINT_ORBITALS false
MOLDEN_FORMAT false
--------------------------------------------------------------

             Standard Nuclear Orientation (Angstroms)
    I     Atom           X                Y                Z
 ----------------------------------------------------------------
    1      C       3.7897792939    -0.6129354565    -0.1819890159
    2      C       3.0398267519     0.4537355011     0.0676961670
    3      C       1.5830906360     0.5147749577     0.0471404815
    4      C       0.9612320800     1.7672435128     0.0929767882
    5      C      -0.4112952572     1.8734709151     0.0572253693
    6      C      -1.2000665352     0.7248317900    -0.0136353221
    7      C      -2.6037347235     0.8726213660    -0.0456735556
    8      N      -3.7411355866     1.0223306653    -0.0742606266
    9      C      -0.6036947979    -0.5510295465    -0.0384303991
   10      C      -1.4542405730    -1.7351546045    -0.0964103895
   11      C      -1.0792219165    -2.9765100185     0.1872315021
   12      C       0.7838947681    -0.6244135978    -0.0139041722
   13      H       4.8643006777    -0.5599522873    -0.1490425504
   14      H       3.3746728409    -1.5727413735    -0.4379495492
   15      H       3.5250796743     1.3947447184     0.2964188473
   16      H       1.5662258362     2.6606837493     0.1459541460
   17      H      -0.8895490719     2.8419004294     0.0838031636
   18      H      -2.4831511875    -1.5427833803    -0.3745609723
   19      H      -0.0806734907    -3.2275680787     0.5031327987
   20      H      -1.7742681143    -3.7957707419     0.1263786320
   21      H       1.2518935815    -1.5946366068    -0.0476748525
 ----------------------------------------------------------------

    9    -479.2879247734      5.21e-06  Convergence criterion met
 Total energy in the final basis set =     -479.2879247734

                    Orbital Energies (a.u.)
 --------------------------------------------------------------

 Alpha MOs
 -- Occupied --
-14.3298 -10.2330 -10.2236 -10.2219 -10.2192 -10.2153 -10.2078 -10.2069
-10.2067 -10.2027 -10.1980 -10.1952  -0.9140  -0.8880  -0.8263  -0.8040
 -0.7588  -0.7476  -0.6667  -0.6517  -0.5877  -0.5786  -0.5579  -0.5048
 -0.4948  -0.4664  -0.4613  -0.4468  -0.4289  -0.4136  -0.4093  -0.3821
 -0.3711  -0.3636  -0.3606  -0.3538  -0.3291  -0.3250  -0.2999  -0.2501
 -0.2388

          Ground-State Mulliken Net Atomic Charges

     Atom                 Charge (a.u.)
  ----------------------------------------
      1 C                    -0.341804
      2 C                    -0.122357
      3 C                     0.202824
      4 C                    -0.204775
      5 C                    -0.136799
      6 C                     0.092929
      7 C                     0.208678
      8 N                    -0.483131
      9 C                     0.183360
     10 C                    -0.126886
     11 C                    -0.340546
     12 C                    -0.276942
     13 H                     0.153848
     14 H                     0.150237
     15 H                     0.136133
     16 H                     0.141693
     17 H                     0.159755
     18 H                     0.162457
     19 H                     0.148209
     20 H                     0.156580
     21 H                     0.136538
  ----------------------------------------
  Sum of atomic charges =     0.000000

                    Cartesian Multipole Moments
 -----------------------------------------------------------------
    Charge (ESU x 10^10)
                 0.0000
    Dipole Moment (Debye)
         X       4.5608      Y      -0.8365      Z       0.1025
       Tot       4.6380
    Quadrupole Moments (Debye-Ang)
        XX     -80.0679     XY       5.5261     YY     -60.1822
        XZ       0.2792     YZ       0.6362     ZZ     -72.6848

 Total job time:  26.05s(wall), 25.96s(cpu)
        *  Thank you very much for using Q-Chem.  Have a nice day.  *
