 Q-Chem 5.2, Q-Chem, Inc., Pleasanton, CA (2019)
 Q-Chem 5.2.1 for Intel X86 EM64T Linux

User input:
--------------------------------------------------------------
$molecule
0 1
F         5.64670477860000   -0.31048412640000    0.11600351480000
C         4.31380665730000   -0.29562710380000    0.06183911360000
F         3.90705933440000    0.96327818560000   -0.07282245650000
C         3.57476357070000   -1.39309346400000    0.12988097890000
C         2.12758573910000   -1.51718696100000    0.07896001430000
C         1.58848638470000   -2.81599295210000    0.05990222170000
C         0.23027599860000   -3.03697521960000    0.02391255040000
C         1.27969189260000   -0.41217251960000    0.05412667220000
C        -0.08566110850000   -0.63364886970000   -0.00475639240000
C        -0.62530264560000   -1.94249116690000   -0.00593868310000
C        -2.05101382900000   -1.79624732080000   -0.02615334120000
C        -3.10510976220000   -2.70139793130000   -0.05262494370000
C        -4.39461822910000   -2.21224231220000   -0.09125010460000
C        -4.64050246240000   -0.84043665350000   -0.11822026230000
C        -3.61000340700000    0.07907828830000   -0.09238664280000
C        -2.31099889770000   -0.40554698910000   -0.03009969630000
N        -1.11530834390000    0.28326766030000   -0.01725448800000
C        -0.97069266510000    1.67989693790000   -0.01238105650000
C        -0.13629252060000    2.29964862580000   -0.93745051950000
C         0.00804106150000    3.67460403660000   -0.92256085200000
C        -0.68348510420000    4.43971477050000    0.00176064530000
C        -1.51887026070000    3.82415625100000    0.91899026140000
C        -1.66084390390000    2.44880631160000    0.91956534350000
H         4.13423953790000   -2.31249753150000    0.22653094460000
H         2.26448979120000   -3.65783363970000    0.07943846120000
H        -0.16567553740000   -4.04101433270000    0.02278203040000
H         1.66708524120000    0.59186386300000    0.09535551940000
H        -2.91300447460000   -3.76365911050000   -0.04721880320000
H        -5.22870689230000   -2.89766261710000   -0.11015816990000
H        -5.66048581680000   -0.48840301860000   -0.16417865000000
H        -3.81016199170000    1.13914897360000   -0.13102684770000
H         0.38530732660000    1.70213631460000   -1.66988972810000
H         0.65888736540000    4.15033603400000   -1.64069343640000
H        -0.57115267880000    5.51328626940000    0.00790834990000
H        -2.05644761660000    4.41669777000000    1.64437845920000
H        -2.29316546970000    1.96260430740000    1.64749959120000
$end

$rem
BASIS = 6-31G*
GUI = 2
METHOD = B3LYP
PRINT_ORBITALS false
MOLDEN_FORMAT false
--------------------------------------------------------------

             Standard Nuclear Orientation (Angstroms)
    I     Atom           X                Y                Z
 ----------------------------------------------------------------
    1      F       5.7208058292     0.2769686367    -0.1297790275
    2      C       4.3879683818     0.2711555933    -0.0724862484
    3      F       3.9730251774    -0.9849186232     0.0635995726
    4      C       3.6562139753     1.3735759098    -0.1392074986
    5      C       2.2100327692     1.5074827441    -0.0849424463
    6      C       1.6797842228     2.8099156202    -0.0651081778
    7      C       0.3231890470     3.0401012993    -0.0260191239
    8      C       1.3547385287     0.4082431591    -0.0577085955
    9      C      -0.0089420383     0.6389794809     0.0042903372
   10      C      -0.5397067391     1.9514456901     0.0062466645
   11      C      -1.9663239185     1.8148650413     0.0298564776
   12      C      -3.0142032898     2.7271409586     0.0584586418
   13      C      -4.3068994097     2.2467408811     0.1002882501
   14      C      -4.5620005195     0.8766411530     0.1283483576
   15      C      -3.5378131634    -0.0498387771     0.1004448432
   16      C      -2.2357074110     0.4259582822     0.0349329639
   17      N      -1.0447406054    -0.2709404046     0.0195443548
   18      C      -0.9095945567    -1.6685184319     0.0148553257
   19      C      -0.0772415149    -2.2935731895     0.9381993737
   20      C       0.0577456729    -3.6694795317     0.9234866781
   21      C      -0.6411101349    -4.4302224074     0.0010746550
   22      C      -1.4744581610    -3.8093512403    -0.9144256893
   23      C      -1.6071190718    -2.4330719043    -0.9151833769
   24      H       4.2216728044     2.2891363159    -0.2375124757
   25      H       2.3614233029     3.6471531612    -0.0865436104
   26      H      -0.0659528284     4.0467984777    -0.0243370422
   27      H       1.7352284054    -0.5984077325    -0.0994688408
   28      H      -2.8149246305     3.7880751610     0.0522044594
   29      H      -5.1362823627     2.9377993001     0.1208937419
   30      H      -5.5842329962     0.5315377558     0.1768283077
   31      H      -3.7450521350    -1.1085160891     0.1399510445
   32      H       0.4501077229    -1.6993432614     1.6691905712
   33      H       0.7070391625    -4.1493494235     1.6402705401
   34      H      -0.5360625588    -5.5045319688    -0.0049340320
   35      H      -2.0177343097    -4.3984997873    -1.6383303230
   36      H      -2.2378404115    -1.9428611821    -1.6418162002
 ----------------------------------------------------------------

    9   -1024.3871581532      4.89e-06  Convergence criterion met
 Total energy in the final basis set =    -1024.3871581532

                    Orbital Energies (a.u.)
 --------------------------------------------------------------

 Alpha MOs
 -- Occupied --
-24.7411 -24.7301 -14.3827 -10.3519 -10.2371 -10.2224 -10.2212 -10.2026
-10.1994 -10.1977 -10.1975 -10.1969 -10.1966 -10.1944 -10.1875 -10.1852
-10.1848 -10.1847 -10.1843 -10.1842 -10.1836 -10.1818 -10.1777  -1.2810
 -1.2202  -1.0029  -0.8773  -0.8573  -0.8462  -0.8101  -0.7784  -0.7631
 -0.7555  -0.7519  -0.7188  -0.7155  -0.6583  -0.6367  -0.6270  -0.6141
 -0.6060  -0.5824  -0.5794  -0.5670  -0.5418  -0.5306  -0.5169  -0.5149
 -0.5003  -0.4915  -0.4734  -0.4614  -0.4568  -0.4471  -0.4398  -0.4373
 -0.4371  -0.4350  -0.4329  -0.4234  -0.4198  -0.4127  -0.4031  -0.3795
 -0.3759  -0.3715  -0.3645  -0.3603  -0.3586  -0.3397  -0.3360  -0.3315
 -0.3025  -0.2631  -0.2620  -0.2550  -0.2534  -0.2008  -0.1986

          Ground-State Mulliken Net Atomic Charges

     Atom                 Charge (a.u.)
  ----------------------------------------
      1 F                    -0.251701
      2 C                     0.542289
      3 F                    -0.237393
      4 C                    -0.303906
      5 C                     0.197120
      6 C                    -0.218134
      7 C                    -0.195236
      8 C                    -0.261630
      9 C                     0.319975
     10 C                     0.066138
     11 C                     0.057575
     12 C                    -0.193493
     13 C                    -0.145922
     14 C                    -0.138574
     15 C                    -0.177826
     16 C                     0.315263
     17 N                    -0.735861
     18 C                     0.277311
     19 C                    -0.153264
     20 C                    -0.140164
     21 C                    -0.120497
     22 C                    -0.140926
     23 C                    -0.153869
     24 H                     0.158825
     25 H                     0.121621
     26 H                     0.131490
     27 H                     0.151682
     28 H                     0.128523
     29 H                     0.121996
     30 H                     0.125377
     31 H                     0.139461
     32 H                     0.153247
     33 H                     0.138211
     34 H                     0.133261
     35 H                     0.136920
     36 H                     0.152112
  ----------------------------------------
  Sum of atomic charges =     0.000000

                    Cartesian Multipole Moments
 -----------------------------------------------------------------
    Charge (ESU x 10^10)
                 0.0000
    Dipole Moment (Debye)
         X      -0.8398      Y      -0.8915      Z      -0.0320
       Tot       1.2252
    Quadrupole Moments (Debye-Ang)
        XX    -127.9497     XY       4.0052     YY    -112.4154
        XZ       2.9963     YZ       0.1214     ZZ    -130.5569

 Total job time:  107.51s(wall), 107.22s(cpu)
        *  Thank you very much for using Q-Chem.  Have a nice day.  *
