 Q-Chem 5.2, Q-Chem, Inc., Pleasanton, CA (2019)
 Q-Chem 5.2.1 for Intel X86 EM64T Linux

User input:
--------------------------------------------------------------
$molecule
0 1
C         4.04578306550000    0.50102385920000   -0.28035233410000
C         2.95476702920000    0.81113545570000    0.40721470930000
C         1.60058992000000    0.30763728450000    0.19501115920000
C         0.53791171490000    1.18325534230000    0.41569943650000
C        -0.78440653310000    0.80940309600000    0.21719000260000
C        -1.82543225140000    1.83073708150000    0.27719576220000
C        -2.84234760780000    1.91961372600000   -0.57304499860000
C        -1.00016069730000   -0.55173654920000   -0.09035770190000
N        -2.23917693320000   -1.13885218610000   -0.19225132830000
N        -3.33927395180000   -0.78314796610000    0.60943370400000
N         0.00967085730000   -1.39255328190000   -0.29688361960000
C         1.26745662460000   -0.99796524500000   -0.20329452370000
C         2.27851161430000   -2.06837343770000   -0.47191708020000
H         4.99516001350000    0.95409534460000   -0.04808472580000
H         4.03839879920000   -0.18152804050000   -1.11068154250000
H         3.02855819990000    1.55440276740000    1.19399170710000
H         0.75038156200000    2.20625177230000    0.69866430280000
H        -1.68798959050000    2.59185882300000    1.03666840880000
H        -2.95991502790000    1.22430338260000   -1.38887317260000
H        -3.56232954740000    2.71825392590000   -0.51147012550000
H        -2.16890636350000   -2.14340859930000   -0.31632056890000
H        -3.85494921480000   -0.02087013220000    0.16697985500000
H        -3.03142739170000   -0.44925568050000    1.52315014900000
H         1.80352478550000   -3.03779695690000   -0.34637417750000
H         3.12866427730000   -1.97979455610000    0.20006590600000
H         2.63581835090000   -1.99986537170000   -1.49849838570000
$end

$rem
BASIS = 6-31G*
GUI = 2
METHOD = B3LYP
PRINT_ORBITALS false
MOLDEN_FORMAT false
--------------------------------------------------------------

             Standard Nuclear Orientation (Angstroms)
    I     Atom           X                Y                Z
 ----------------------------------------------------------------
    1      C      -3.9614864132     0.8951774655     0.2514847497
    2      C      -2.8225940143     1.1575898444    -0.3756495899
    3      C      -1.5366554834     0.4900071240    -0.1939030510
    4      C      -0.3808851798     1.2637581250    -0.2948964184
    5      C       0.8875338900     0.7292303722    -0.1129893233
    6      C       2.0321131568     1.6319256043    -0.0385718039
    7      C       3.0253219565     1.5172471272     0.8362483939
    8      C       0.9482859031    -0.6725408211     0.0457031408
    9      N       2.1144127216    -1.3983006563     0.1062772264
   10      N       3.2707618679    -1.0794640071    -0.6290034522
   11      N      -0.1508321547    -1.4161077218     0.1375359260
   12      C      -1.3562384964    -0.8794588595     0.0634601269
   13      C      -2.4828184840    -1.8564924690     0.1914711675
   14      H      -4.8497973917     1.4711417090     0.0522175980
   15      H      -4.0525966915     0.1299864129     1.0008576794
   16      H      -2.7924408856     1.9852737853    -1.0763203833
   17      H      -0.4749130578     2.3283675909    -0.4666511580
   18      H       2.0000285446     2.4812086299    -0.7113900642
   19      H       3.0428307179     0.7290529982     1.5719777190
   20      H       3.8273166892     2.2349179290     0.8780179528
   21      H       1.9344039614    -2.3967769988     0.1165998494
   22      H       3.8499114585    -0.4301162434    -0.0945063849
   23      H       3.0290086831    -0.6171486104    -1.5059020646
   24      H      -2.1092918261    -2.8524369432    -0.0315263832
   25      H      -3.2971536936    -1.6038704728    -0.4832192769
   26      H      -2.8631645652    -1.8611541677     1.2120326615
 ----------------------------------------------------------------

    9    -553.0670930162      2.24e-06  Convergence criterion met
 Total energy in the final basis set =     -553.0670930162

                    Orbital Energies (a.u.)
 --------------------------------------------------------------

 Alpha MOs
 -- Occupied --
-14.3659 -14.3476 -14.3141 -10.2521 -10.2241 -10.1982 -10.1977 -10.1954
-10.1900 -10.1883 -10.1830 -10.1770 -10.1710  -0.9943  -0.9355  -0.8282
 -0.8195  -0.7866  -0.7537  -0.7314  -0.6927  -0.6318  -0.6123  -0.5926
 -0.5574  -0.5320  -0.5032  -0.5012  -0.4793  -0.4750  -0.4520  -0.4386
 -0.4262  -0.4260  -0.3983  -0.3934  -0.3878  -0.3729  -0.3657  -0.3476
 -0.3190  -0.3069  -0.2756  -0.2597  -0.2527  -0.2373  -0.1987

          Ground-State Mulliken Net Atomic Charges

     Atom                 Charge (a.u.)
  ----------------------------------------
      1 C                    -0.345503
      2 C                    -0.134884
      3 C                     0.109682
      4 C                    -0.219731
      5 C                     0.132154
      6 C                    -0.142485
      7 C                    -0.371143
      8 C                     0.419374
      9 N                    -0.510897
     10 N                    -0.581102
     11 N                    -0.557681
     12 C                     0.263626
     13 C                    -0.519506
     14 H                     0.140656
     15 H                     0.146713
     16 H                     0.129995
     17 H                     0.132796
     18 H                     0.135567
     19 H                     0.164566
     20 H                     0.145140
     21 H                     0.336945
     22 H                     0.321278
     23 H                     0.305950
     24 H                     0.169406
     25 H                     0.165087
     26 H                     0.163996
  ----------------------------------------
  Sum of atomic charges =     0.000000

                    Cartesian Multipole Moments
 -----------------------------------------------------------------
    Charge (ESU x 10^10)
                 0.0000
    Dipole Moment (Debye)
         X      -0.0193      Y       1.7724      Z      -0.6753
       Tot       1.8968
    Quadrupole Moments (Debye-Ang)
        XX     -72.3696     XY       4.4721     YY     -75.9709
        XZ      -0.4953     YZ      -2.9281     ZZ     -76.7872

 Total job time:  36.53s(wall), 36.41s(cpu)
        *  Thank you very much for using Q-Chem.  Have a nice day.  *
