 Q-Chem 5.2, Q-Chem, Inc., Pleasanton, CA (2019)
 Q-Chem 5.2.1 for Intel X86 EM64T Linux

User input:
--------------------------------------------------------------
$molecule
0 1
C         3.58470732260000   -2.53027585240000   -0.06386343790000
C         3.29893518620000   -1.23780949290000    0.03889894290000
C         1.96861593810000   -0.64011326500000    0.03649925620000
C         1.86025851160000    0.75021647950000    0.07740085030000
C         0.64017314090000    1.43518007400000    0.08006971070000
C         0.55693278070000    2.89138547720000    0.13293021470000
C         1.51335507540000    3.73365687810000   -0.23595357680000
C        -0.50490850750000    0.64511436550000    0.04779833530000
C        -0.41986047920000   -0.75698331200000    0.00861512840000
C         0.79799275720000   -1.40636623850000    0.00190942730000
C        -1.78258064660000   -1.29746163980000   -0.02287896370000
O        -2.15789420980000   -2.44013494620000   -0.05325425700000
C        -2.69121646580000   -0.03849775620000   -0.00876058950000
O        -3.89242790360000    0.02060661490000   -0.03060716930000
N        -1.83726050860000    1.03112656360000    0.03416344560000
H         4.60335994000000   -2.87731303090000   -0.05428843170000
H         2.83007949240000   -3.29085181690000   -0.16399123650000
H         4.11092193050000   -0.52686001360000    0.12927207440000
H         2.76854319890000    1.33226627430000    0.12688312930000
H        -0.38056520720000    3.28896332580000    0.50116991090000
H         2.45536818210000    3.39945880240000   -0.63550062140000
H         1.37968190480000    4.79897965850000   -0.16480501650000
H         0.82490762620000   -2.48317861160000   -0.02344213810000
H        -2.15259216500000    1.98880035030000    0.03687266500000
$end

$rem
BASIS = 6-31G*
GUI = 2
METHOD = B3LYP
PRINT_ORBITALS false
MOLDEN_FORMAT false
--------------------------------------------------------------

             Standard Nuclear Orientation (Angstroms)
    I     Atom           X                Y                Z
 ----------------------------------------------------------------
    1      C       3.6126437717    -2.4051558648    -0.0577303136
    2      C       3.2718506049    -1.1261105333     0.0452170925
    3      C       1.9172671294    -0.5856668258     0.0407395674
    4      C       1.7496653253     0.7987542661     0.0821997444
    5      C       0.5014860771     1.4310820479     0.0830371498
    6      C       0.3561488673     2.8823822219     0.1365373089
    7      C       1.2764508127     3.7648877505    -0.2301618749
    8      C      -0.6088145434     0.5929406560     0.0482695469
    9      C      -0.4640022997    -0.8042323958     0.0084792804
   10      C       0.7804372206    -1.4011045161     0.0036203150
   11      C      -1.8023846181    -1.4022915961    -0.0257686122
   12      O      -2.1285897593    -2.5599064927    -0.0574414935
   13      C      -2.7638881549    -0.1832156405    -0.0126079184
   14      O      -3.9664864142    -0.1753582724    -0.0365913850
   15      N      -1.9563847521     0.9218131039     0.0324383207
   16      H       4.6451459866    -2.7084589983    -0.0465042558
   17      H       2.8913050817    -3.1971475532    -0.1596331886
   18      H       4.0526289392    -0.3812490001     0.1374419646
   19      H       2.6322217652     1.4189637397     0.1336377855
   20      H      -0.5981000393     3.2394057594     0.5032992410
   21      H       2.2325645810     3.4713982152    -0.6281885607
   22      H       1.0973576058     4.8234994696    -0.1586768276
   23      H       0.8532775930    -2.4757747609    -0.0222668228
   24      H      -2.3122600178     1.8651721013     0.0350977291
 ----------------------------------------------------------------

    9    -667.8580498814      8.20e-06  Convergence criterion met
 Total energy in the final basis set =     -667.8580498814

                    Orbital Energies (a.u.)
 --------------------------------------------------------------

 Alpha MOs
 -- Occupied --
-19.1640 -19.1480 -14.3960 -10.3068 -10.2904 -10.2599 -10.2220 -10.2175
-10.2162 -10.2152 -10.2134 -10.2091 -10.2019 -10.2017 -10.1896  -1.0777
 -1.0542  -0.9888  -0.8834  -0.8279  -0.8057  -0.7653  -0.7416  -0.7211
 -0.6544  -0.6316  -0.6089  -0.5729  -0.5612  -0.5562  -0.5129  -0.4969
 -0.4795  -0.4765  -0.4753  -0.4516  -0.4448  -0.4389  -0.4303  -0.4124
 -0.4013  -0.3957  -0.3914  -0.3696  -0.3639  -0.3482  -0.3243  -0.3121
 -0.2859  -0.2570  -0.2484  -0.2217

          Ground-State Mulliken Net Atomic Charges

     Atom                 Charge (a.u.)
  ----------------------------------------
      1 C                    -0.353707
      2 C                    -0.114599
      3 C                     0.186725
      4 C                    -0.285622
      5 C                     0.184746
      6 C                    -0.119409
      7 C                    -0.341419
      8 C                     0.241198
      9 C                     0.070356
     10 C                    -0.236901
     11 C                     0.323145
     12 O                    -0.425849
     13 C                     0.577499
     14 O                    -0.452793
     15 N                    -0.755059
     16 H                     0.149622
     17 H                     0.149040
     18 H                     0.129644
     19 H                     0.139925
     20 H                     0.125413
     21 H                     0.151532
     22 H                     0.153954
     23 H                     0.161481
     24 H                     0.341077
  ----------------------------------------
  Sum of atomic charges =     0.000000

                    Cartesian Multipole Moments
 -----------------------------------------------------------------
    Charge (ESU x 10^10)
                 0.0000
    Dipole Moment (Debye)
         X       4.3603      Y       3.8259      Z       0.1112
       Tot       5.8019
    Quadrupole Moments (Debye-Ang)
        XX     -95.5079     XY      -9.5332     YY     -79.8001
        XZ      -1.1121     YZ       0.1264     ZZ     -86.9878

 Total job time:  40.72s(wall), 40.59s(cpu)
        *  Thank you very much for using Q-Chem.  Have a nice day.  *
