 Q-Chem 5.2, Q-Chem, Inc., Pleasanton, CA (2019)
 Q-Chem 5.2.1 for Intel X86 EM64T Linux

User input:
--------------------------------------------------------------
$molecule
0 1
C         7.08412889430000   -0.61850380180000    0.06948375520000
C         6.14839636790000    0.32190994750000   -0.00312560270000
C         4.70746678550000    0.12054564530000   -0.00765270610000
C         3.86641925050000    1.23522705250000   -0.07487882690000
C         2.49591580320000    1.10486289020000   -0.07978292140000
C         1.89374486710000   -0.15591527920000   -0.01827240920000
C         0.46137730420000   -0.36396175880000   -0.01717563580000
C        -0.48429469860000    0.58939356320000   -0.01437159950000
C        -1.91671155420000    0.38179596960000   -0.00772264740000
C        -2.51945335170000   -0.87948215620000   -0.07147347570000
C        -3.88881921830000   -1.01787086510000   -0.05930026640000
C        -4.72936471120000    0.09596232540000    0.01740076790000
C        -6.18113601030000    0.00201791750000    0.03533191950000
C        -6.90901642700000   -1.10842890490000   -0.01294925700000
C        -4.12970360220000    1.35663407580000    0.07822493500000
C        -2.76018736300000    1.49612986290000    0.06459875860000
C         2.73801850490000   -1.27124538580000    0.04390139900000
C         4.10809502740000   -1.13983249490000    0.05067532190000
H         8.13084492380000   -0.36683881930000    0.06749706210000
H         6.85378768680000   -1.66808361940000    0.13476723130000
H         6.45584485520000    1.35935136860000   -0.06507840810000
H         4.30565779900000    2.22229073510000   -0.12405040450000
H         1.88536846800000    1.99301205560000   -0.13597539610000
H         0.16422302390000   -1.40460677380000   -0.00925588480000
H        -0.18695896520000    1.63002849160000   -0.00755636030000
H        -1.90638495850000   -1.76546108920000   -0.13538853580000
H        -4.31545840430000   -2.00786823190000   -0.11083151070000
H        -6.69056552560000    0.95670476440000    0.09564851960000
H        -6.47299071620000   -2.09072849370000   -0.07284999950000
H        -7.98477165620000   -1.07286655830000    0.00669291150000
H        -4.75533413370000    2.23674055230000    0.13669756100000
H        -2.32452122650000    2.48468777900000    0.11297838400000
H         2.29959230200000   -2.25879559270000    0.09044026400000
H         4.72189863830000   -2.02602163600000    0.10073709830000
$end

$rem
BASIS = 6-31G*
GUI = 2
METHOD = B3LYP
PRINT_ORBITALS false
MOLDEN_FORMAT false
--------------------------------------------------------------

             Standard Nuclear Orientation (Angstroms)
    I     Atom           X                Y                Z
 ----------------------------------------------------------------
    1      C       7.0828955165    -0.6173771034     0.0682959289
    2      C       6.1479504165     0.3238299851    -0.0041773510
    3      C       4.7068504674     0.1236849462    -0.0085406639
    4      C       3.8667383926     1.2390793742    -0.0756370026
    5      C       2.4961245769     1.1098748779    -0.0803836156
    6      C       1.8928944331    -0.1503950994    -0.0188372929
    7      C       0.4603515080    -0.3572297136    -0.0175779208
    8      C      -0.4845132530     0.5969252527    -0.0146362797
    9      C      -1.9171044384     0.3905394115    -0.0078247108
   10      C      -2.5209205875    -0.8702265520    -0.0715396744
   11      C      -3.8904016049    -1.0074570300    -0.0592093400
   12      C      -4.7299954407     0.1070847503     0.0176213928
   13      C      -6.1818435827     0.0143681144     0.0357205887
   14      C      -6.9106688794    -1.0954611597    -0.0125058298
   15      C      -4.1292608360     1.3672470265     0.0784100406
   16      C      -2.7596286801     1.5055844954     0.0646267521
   17      C       2.7362314669    -1.2664408153     0.0432063361
   18      C       4.1064194650    -1.1361872816     0.0498228567
   19      H       8.1298238468    -0.3665977056     0.0661931790
   20      H       6.8516740892    -1.6667634875     0.1335773665
   21      H       6.4562692174     1.3610126495    -0.0661375183
   22      H       4.3068060877     2.2257724644    -0.1248328311
   23      H       1.8863222615     1.9985418288    -0.1364796864
   24      H       0.1623178499    -1.3976231757    -0.0096521064
   25      H      -0.1862964186     1.6373080645    -0.0078271257
   26      H      -1.9086094943    -1.7567220607    -0.1355513737
   27      H      -4.3178842590    -1.9970916594    -0.1107178950
   28      H      -6.6904581298     0.9694839312     0.0961235515
   29      H      -6.4754814224    -2.0781276186    -0.0724850726
   30      H      -7.9863913210    -1.0589892549     0.0072637760
   31      H      -4.7541396708     2.2478808601     0.1369806195
   32      H      -2.3231206671     2.4937721253     0.1129825872
   33      H       2.2969753961    -2.2536210436     0.0897693430
   34      H       4.7194789927    -2.0228967931     0.0997879008
 ----------------------------------------------------------------

    8    -695.5080781296      6.40e-06  Convergence criterion met
 Total energy in the final basis set =     -695.5080781296

                    Orbital Energies (a.u.)
 --------------------------------------------------------------

 Alpha MOs
 -- Occupied --
-10.1960 -10.1959 -10.1942 -10.1941 -10.1903 -10.1898 -10.1898 -10.1894
-10.1878 -10.1875 -10.1875 -10.1871 -10.1870 -10.1866 -10.1864 -10.1864
-10.1795 -10.1795  -0.8695  -0.8646  -0.8169  -0.7972  -0.7683  -0.7504
 -0.7497  -0.7366  -0.7023  -0.6480  -0.6214  -0.6151  -0.6024  -0.5700
 -0.5615  -0.5542  -0.5127  -0.5052  -0.4812  -0.4725  -0.4587  -0.4512
 -0.4444  -0.4374  -0.4247  -0.4209  -0.4141  -0.4072  -0.3869  -0.3857
 -0.3786  -0.3757  -0.3601  -0.3485  -0.3431  -0.3382  -0.3319  -0.3304
 -0.3069  -0.2685  -0.2543  -0.2541  -0.2323  -0.1923

          Ground-State Mulliken Net Atomic Charges

     Atom                 Charge (a.u.)
  ----------------------------------------
      1 C                    -0.353083
      2 C                    -0.114444
      3 C                     0.181224
      4 C                    -0.201404
      5 C                    -0.179676
      6 C                     0.192854
      7 C                    -0.192590
      8 C                    -0.191294
      9 C                     0.192369
     10 C                    -0.181671
     11 C                    -0.186176
     12 C                     0.180975
     13 C                    -0.113593
     14 C                    -0.353685
     15 C                    -0.199919
     16 C                    -0.199720
     17 C                    -0.201734
     18 C                    -0.184624
     19 H                     0.144464
     20 H                     0.142608
     21 H                     0.126610
     22 H                     0.128036
     23 H                     0.129286
     24 H                     0.128110
     25 H                     0.127827
     26 H                     0.129579
     27 H                     0.127226
     28 H                     0.126548
     29 H                     0.142694
     30 H                     0.144520
     31 H                     0.128138
     32 H                     0.126569
     33 H                     0.126703
     34 H                     0.127275
  ----------------------------------------
  Sum of atomic charges =     0.000000

                    Cartesian Multipole Moments
 -----------------------------------------------------------------
    Charge (ESU x 10^10)
                 0.0000
    Dipole Moment (Debye)
         X      -0.0095      Y       0.0708      Z       0.0045
       Tot       0.0716
    Quadrupole Moments (Debye-Ang)
        XX     -95.4940     XY      -0.2077     YY     -92.9062
        XZ      -0.0746     YZ       0.0058     ZZ    -113.0350

 Total job time:  48.91s(wall), 48.77s(cpu)
        *  Thank you very much for using Q-Chem.  Have a nice day.  *
