 Q-Chem 5.2, Q-Chem, Inc., Pleasanton, CA (2019)
 Q-Chem 5.2.1 for Intel X86 EM64T Linux

User input:
--------------------------------------------------------------
$molecule
0 1
C        -3.94136285370000   -5.39586284730000    0.51512760980000
O        -4.21373366930000   -4.02742775420000    0.35129755450000
C        -3.16673124090000   -3.14871327820000    0.30650425110000
C        -3.51341162230000   -1.81266783370000    0.13241459040000
C        -2.51066050240000   -0.86060738090000    0.08582204800000
C        -2.51934018060000    0.56405137660000   -0.10537493730000
C        -3.53599979400000    1.48785043290000   -0.27042216390000
C        -3.20860120210000    2.83320263720000   -0.40577643200000
O        -4.26709175780000    3.68256648390000   -0.57385250270000
C        -4.01496064360000    5.05779534240000   -0.71203979580000
C        -1.87262109420000    3.23946289460000   -0.35341083440000
C        -0.84783192610000    2.32356189210000   -0.18781850760000
C        -1.16865943500000    0.98120641600000   -0.08468866630000
N        -0.34964460770000   -0.11808583150000    0.11721315110000
C         1.04105688430000   -0.09735022900000    0.20300924160000
C         1.69799292890000   -0.77919438970000    1.22734315970000
C         3.07311641720000   -0.75472904670000    1.30558039900000
C         3.83998685150000   -0.04701445010000    0.37533110250000
C         5.28408522940000   -0.06090956100000    0.52513369120000
C         6.19775209230000    0.55255455180000   -0.21360167390000
F         6.00810579850000    1.33062147000000   -1.27355126050000
F         7.50573985160000    0.46450492330000    0.02658035460000
C         3.17420912300000    0.63405275150000   -0.64706272620000
C         1.79870524170000    0.60614362520000   -0.73338926410000
C        -1.15559986650000   -1.23993829940000    0.22348310610000
C        -0.81187262020000   -2.57313195500000    0.36465135280000
C        -1.82302462050000   -3.51765640910000    0.41056325500000
H        -4.91216153840000   -5.88930128510000    0.52615507390000
H        -3.42567363680000   -5.59564323890000    1.46058958320000
H        -3.34602894400000   -5.79237517680000   -0.31436083810000
H        -4.55229100510000   -1.54536035110000    0.03107387320000
H        -4.57175304120000    1.19152419050000   -0.29053733320000
H        -4.99099312040000    5.52403315630000   -0.83864689350000
H        -3.39820189700000    5.26981107990000   -1.59197617700000
H        -3.53146785660000    5.47234986790000    0.17906161530000
H        -1.61602614000000    4.28350452820000   -0.43621688330000
H         0.17397766020000    2.66561535120000   -0.12785405250000
H         1.12012159410000   -1.30729499820000    1.97032571860000
H         3.56809943600000   -1.28211660470000    2.10798981410000
H         5.67748986340000   -0.64294549000000    1.34628184840000
H         3.73148584730000    1.18107172770000   -1.38951608060000
H         1.29908780190000    1.11400834690000   -1.54408750290000
H         0.21922023500000   -2.88649301610000    0.42366517450000
H        -1.54892754710000   -4.55446596840000    0.52328216440000
$end

$rem
BASIS = 6-31G*
GUI = 2
METHOD = B3LYP
PRINT_ORBITALS false
MOLDEN_FORMAT false
--------------------------------------------------------------

             Standard Nuclear Orientation (Angstroms)
    I     Atom           X                Y                Z
 ----------------------------------------------------------------
    1      C      -4.4426172069    -4.9266475023    -0.2908964332
    2      O      -4.5568562067    -3.5273151277    -0.2413070339
    3      C      -3.4167717393    -2.7763634639    -0.1598290533
    4      C      -3.6084103938    -1.3988461877    -0.1247191341
    5      C      -2.5039743297    -0.5706017683    -0.0334396659
    6      C      -2.3496121887     0.8582499337    -0.0044682601
    7      C      -3.2536326010     1.9055357530    -0.0179426735
    8      C      -2.7748557403     3.2099354816     0.0513194014
    9      O      -3.7288320243     4.1893452506     0.0238144941
   10      C      -3.3214287917     5.5320325009     0.0954649942
   11      C      -1.4020242746     3.4494849908     0.1541892265
   12      C      -0.4890381344     2.4089490840     0.1693430602
   13      C      -0.9606497485     1.1116727810     0.0686407366
   14      N      -0.2731958600    -0.0911533796     0.0933278833
   15      C       1.1100668786    -0.2413953620     0.1698335488
   16      C       1.6761365863    -1.1417517082     1.0724186903
   17      C       3.0444139232    -1.2854126036     1.1421532094
   18      C       3.8950024140    -0.5352729338     0.3247771258
   19      C       5.3268068024    -0.7353434595     0.4587994850
   20      C       6.3108083867    -0.1236297655    -0.1849415596
   21      F       6.2202244690     0.8237196527    -1.1118561219
   22      F       7.5981562047    -0.3949019684     0.0281760367
   23      C       3.3200423609     0.3650253404    -0.5759368202
   24      C       1.9510720679     0.5065848706    -0.6541886846
   25      C      -1.2018740490    -1.1174965559     0.0334392536
   26      C      -1.0125427431    -2.4868476285    -0.0337434339
   27      C      -2.1244662729    -3.3066382947    -0.1244740374
   28      H      -5.4630794980    -5.3028266328    -0.3474575257
   29      H      -3.9616003518    -5.3256920386     0.6086213040
   30      H      -3.8883452564    -5.2565476808    -1.1761331551
   31      H      -4.6093864312    -1.0032856575    -0.1754383892
   32      H      -4.3160358347     1.7349852285    -0.0746042894
   33      H      -4.2372192527     6.1196359701     0.0496780241
   34      H      -2.6765411778     5.8048333620    -0.7467521482
   35      H      -2.8023775394     5.7480600143     1.0354651885
   36      H      -1.0281759425     4.4580620026     0.2298898253
   37      H       0.5643183536     2.6198798301     0.2724908430
   38      H       1.0353799505    -1.7083357859     1.7306451192
   39      H       3.4691059141    -1.9818715925     1.8503821867
   40      H       5.6442200192    -1.4768142887     1.1780262810
   41      H       3.9424735586     0.9524336041    -1.2305779640
   42      H       1.5196428715     1.1856692782    -1.3735557758
   43      H      -0.0241236843    -2.9202693214    -0.0318297404
   44      H      -1.9705121295    -4.3727837897    -0.1738777382
 ----------------------------------------------------------------

    9   -1253.4263454090      4.13e-06  Convergence criterion met
 Total energy in the final basis set =    -1253.4263454090

                    Orbital Energies (a.u.)
 --------------------------------------------------------------

 Alpha MOs
 -- Occupied --
-24.7471 -24.7362 -19.1679 -19.1677 -14.3776 -10.3590 -10.2357 -10.2356
-10.2351 -10.2344 -10.2342 -10.2150 -10.2149 -10.2099 -10.2062 -10.1981
-10.1956 -10.1956 -10.1950 -10.1860 -10.1859 -10.1841 -10.1836 -10.1828
-10.1826 -10.1775 -10.1773  -1.2875  -1.2266  -1.0579  -1.0577  -0.9970
 -0.8790  -0.8496  -0.8458  -0.8114  -0.7818  -0.7647  -0.7564  -0.7552
 -0.7301  -0.7189  -0.6958  -0.6849  -0.6540  -0.6379  -0.6276  -0.6142
 -0.5949  -0.5804  -0.5770  -0.5732  -0.5445  -0.5379  -0.5260  -0.5212
 -0.5190  -0.5040  -0.4894  -0.4826  -0.4652  -0.4642  -0.4640  -0.4614
 -0.4544  -0.4432  -0.4423  -0.4380  -0.4356  -0.4321  -0.4282  -0.4175
 -0.4156  -0.4131  -0.4071  -0.4056  -0.3890  -0.3805  -0.3772  -0.3680
 -0.3604  -0.3596  -0.3476  -0.3470  -0.3224  -0.3178  -0.3142  -0.3099
 -0.2859  -0.2723  -0.2636  -0.2277  -0.2272  -0.2064  -0.1763

          Ground-State Mulliken Net Atomic Charges

     Atom                 Charge (a.u.)
  ----------------------------------------
      1 C                    -0.210714
      2 O                    -0.513241
      3 C                     0.377073
      4 C                    -0.263613
      5 C                     0.069009
      6 C                     0.069257
      7 C                    -0.263462
      8 C                     0.376998
      9 O                    -0.513355
     10 C                    -0.210871
     11 C                    -0.209877
     12 C                    -0.183507
     13 C                     0.314433
     14 N                    -0.744322
     15 C                     0.296468
     16 C                    -0.164513
     17 C                    -0.209028
     18 C                     0.203308
     19 C                    -0.299568
     20 C                     0.542969
     21 F                    -0.235226
     22 F                    -0.248243
     23 C                    -0.209015
     24 C                    -0.164935
     25 C                     0.314973
     26 C                    -0.183851
     27 C                    -0.209798
     28 H                     0.166463
     29 H                     0.146082
     30 H                     0.146828
     31 H                     0.137285
     32 H                     0.137244
     33 H                     0.166459
     34 H                     0.146420
     35 H                     0.146819
     36 H                     0.127804
     37 H                     0.141079
     38 H                     0.152513
     39 H                     0.133159
     40 H                     0.160115
     41 H                     0.143742
     42 H                     0.153024
     43 H                     0.140222
     44 H                     0.127393
  ----------------------------------------
  Sum of atomic charges =     0.000000

                    Cartesian Multipole Moments
 -----------------------------------------------------------------
    Charge (ESU x 10^10)
                 0.0000
    Dipole Moment (Debye)
         X       1.1209      Y      -0.6344      Z       0.5657
       Tot       1.4067
    Quadrupole Moments (Debye-Ang)
        XX    -160.3993     XY       0.5299     YY    -122.7283
        XZ       2.9890     YZ      -2.3390     ZZ    -153.8151

 Total job time:  140.30s(wall), 139.94s(cpu)
        *  Thank you very much for using Q-Chem.  Have a nice day.  *
