 Q-Chem 5.2, Q-Chem, Inc., Pleasanton, CA (2019)
 Q-Chem 5.2.1 for Intel X86 EM64T Linux

User input:
--------------------------------------------------------------
$molecule
0 1
C        -0.68432869070000    3.83490136890000    0.20860237570000
C        -1.70617020950000    2.98812800390000    0.21907783850000
C        -1.62564303230000    1.53160167100000    0.18024271970000
C        -2.78419652400000    0.79683134550000   -0.05897040270000
C        -2.77415824800000   -0.59585403860000   -0.10643814510000
C        -4.02783722220000   -1.29999397230000   -0.35311798650000
C        -4.20657079280000   -2.61465689250000   -0.38872864760000
C        -1.56311436630000   -1.25802893180000    0.07952609350000
C        -0.39988410690000   -0.53786322810000    0.31613046260000
O         0.73750290340000   -1.26547876410000    0.56077473070000
C         1.96265328930000   -0.78368192430000    0.18258152280000
C         3.05609411410000   -1.16518769180000    0.95441057180000
C         4.32865792650000   -0.76678356910000    0.59287740430000
C         4.52323932510000    0.01381720420000   -0.53461832500000
C         3.43604637720000    0.38228236200000   -1.30839603970000
C         2.15795929580000   -0.01459512630000   -0.96008429580000
C        -0.42817603490000    0.84837107020000    0.38072500340000
H        -0.83971345110000    4.89989032430000    0.23247824310000
H         0.34166553740000    3.51068388820000    0.16881595020000
H        -2.71498873790000    3.38220015980000    0.23784017830000
H        -3.71677008290000    1.32215083670000   -0.21140613360000
H        -4.88020449260000   -0.65136434770000   -0.51583784810000
H        -3.40636547680000   -3.31691059300000   -0.23146216850000
H        -5.17655137480000   -3.04182521400000   -0.57750239010000
H        -1.50013463500000   -2.33326252100000    0.05089729010000
H         2.88710698450000   -1.77452111090000    1.82858252280000
H         5.17230207600000   -1.06454873460000    1.19761921750000
H         5.51767004640000    0.32867623860000   -0.81233704620000
H         3.58081575520000    0.97993591010000   -2.19636171080000
H         1.31305881260000    0.26138688760000   -1.57448968240000
H         0.47899222120000    1.38727607440000    0.60601797940000
$end

$rem
BASIS = 6-31G*
GUI = 2
METHOD = B3LYP
PRINT_ORBITALS false
MOLDEN_FORMAT false
--------------------------------------------------------------

             Standard Nuclear Orientation (Angstroms)
    I     Atom           X                Y                Z
 ----------------------------------------------------------------
    1      C      -0.6317313631    -3.8248387453    -0.2272402692
    2      C      -1.6623192315    -2.9887309420    -0.2376009309
    3      C      -1.5970525589    -1.5315497864    -0.1948798321
    4      C      -2.7636718641    -0.8095062901     0.0438860124
    5      C      -2.7682419057     0.5830811040     0.0949349822
    6      C      -4.0296769131     1.2734858671     0.3408982844
    7      C      -4.2221715976     2.5861195508     0.3795118977
    8      C      -1.5637987571     1.2583118818    -0.0869046970
    9      C      -0.3926603137     0.5509141559    -0.3230150703
   10      O       0.7375643105     1.2909658498    -0.5635149383
   11      C       1.9669179447     0.8209833317    -0.1840971736
   12      C       3.0578496468     1.2158464779    -0.9527522887
   13      C       4.3337779560     0.8297886970    -0.5896860793
   14      C       4.5342509201     0.0483530696     0.5361980437
   15      C       3.4494269832    -0.3334101614     1.3068476993
   16      C       2.1679654468     0.0510294569     0.9569878559
   17      C      -0.4063762152    -0.8353685076    -0.3912108823
   18      H      -0.7759614039    -4.8913233695    -0.2541511896
   19      H       0.3907475518    -3.4900554279    -0.1845660432
   20      H      -2.6669370558    -3.3932402043    -0.2593953449
   21      H      -3.6910201993    -1.3449024785     0.1931061487
   22      H      -4.8755587681     0.6155955861     0.5002481274
   23      H      -3.4290183992     3.2970734269     0.2256478574
   24      H      -5.1969230812     3.0026730160     0.5674304600
   25      H      -1.5120847208     2.3340657781    -0.0554001039
   26      H       2.8842527766     1.8256381560    -1.8257005699
   27      H       5.1754688987     1.1378833629    -1.1919702641
   28      H       5.5313570823    -0.2568454839     0.8151057403
   29      H       3.5986584317    -0.9318104598     2.1935708957
   30      H       1.3247720956    -0.2353213100     1.5689887450
   31      H       0.5068032407    -1.3642123504    -0.6160602646
 ----------------------------------------------------------------

    9    -693.3086215820      1.85e-06  Convergence criterion met
 Total energy in the final basis set =     -693.3086215820

                    Orbital Energies (a.u.)
 --------------------------------------------------------------

 Alpha MOs
 -- Occupied --
-19.1900 -10.2511 -10.2491 -10.1994 -10.1991 -10.1922 -10.1916 -10.1902
-10.1896 -10.1874 -10.1872 -10.1861 -10.1856 -10.1855 -10.1835 -10.1819
-10.1813  -1.0850  -0.8721  -0.8557  -0.8077  -0.7848  -0.7532  -0.7509
 -0.7282  -0.7222  -0.6473  -0.6376  -0.6120  -0.5984  -0.5759  -0.5482
 -0.5348  -0.5113  -0.4927  -0.4901  -0.4725  -0.4581  -0.4540  -0.4448
 -0.4286  -0.4264  -0.4224  -0.4038  -0.3951  -0.3840  -0.3756  -0.3661
 -0.3633  -0.3546  -0.3522  -0.3390  -0.3344  -0.3190  -0.2755  -0.2547
 -0.2418  -0.2212  -0.2147

          Ground-State Mulliken Net Atomic Charges

     Atom                 Charge (a.u.)
  ----------------------------------------
      1 C                    -0.352333
      2 C                    -0.112984
      3 C                     0.181688
      4 C                    -0.280022
      5 C                     0.185004
      6 C                    -0.112333
      7 C                    -0.351388
      8 C                    -0.245968
      9 C                     0.366238
     10 O                    -0.574472
     11 C                     0.351873
     12 C                    -0.176261
     13 C                    -0.132320
     14 C                    -0.129235
     15 C                    -0.134527
     16 C                    -0.177190
     17 C                    -0.246124
     18 H                     0.145632
     19 H                     0.146816
     20 H                     0.129339
     21 H                     0.125280
     22 H                     0.127979
     23 H                     0.146301
     24 H                     0.145655
     25 H                     0.137598
     26 H                     0.139424
     27 H                     0.132718
     28 H                     0.126996
     29 H                     0.132988
     30 H                     0.151672
     31 H                     0.151959
  ----------------------------------------
  Sum of atomic charges =     0.000000

                    Cartesian Multipole Moments
 -----------------------------------------------------------------
    Charge (ESU x 10^10)
                 0.0000
    Dipole Moment (Debye)
         X       0.0968      Y      -0.7832      Z       0.4105
       Tot       0.8896
    Quadrupole Moments (Debye-Ang)
        XX     -86.3611     XY      -0.8224     YY     -93.7978
        XZ      -1.5746     YZ      -1.9516     ZZ    -100.4564

 Total job time:  55.32s(wall), 55.16s(cpu)
        *  Thank you very much for using Q-Chem.  Have a nice day.  *
