 Q-Chem 5.2, Q-Chem, Inc., Pleasanton, CA (2019)
 Q-Chem 5.2.1 for Intel X86 EM64T Linux

User input:
--------------------------------------------------------------
$molecule
0 1
C        -6.00743964150000    0.43909082690000    1.35856159240000
C        -4.85734390680000    1.07288746510000    1.14600053520000
C        -3.74526236300000    0.54003102000000    0.40971971940000
C        -2.54595121880000    1.15724415580000    0.16238435460000
C        -1.64538490110000    0.38836413690000   -0.59721103480000
C        -0.26781203500000    0.86130626800000   -0.94186877290000
C         0.76183884920000    0.33172797390000    0.06348980530000
C         2.17166653710000    0.81856829040000   -0.25853095020000
C         3.19989260240000    0.29194202130000    0.73952410150000
C         4.60885301060000    0.79089274950000    0.42769885680000
C         5.63450994060000    0.25108742150000    1.42207241580000
C         7.03805528430000    0.82155322170000    1.21592038210000
C         7.68358740330000    0.37321819000000   -0.09013804900000
C        -2.16112928430000   -0.84642856530000   -0.93042263260000
C        -1.52808693570000   -1.89080460840000   -1.68638596880000
C        -2.06221305260000   -3.08404237480000   -1.93491973420000
S        -3.77518007510000   -1.04219544730000   -0.30597846120000
H        -6.80776279260000    0.88959865810000    1.91814103640000
H        -6.17902538390000   -0.55279732360000    0.97415392820000
H        -4.70057711520000    2.07023593840000    1.53812356220000
H        -2.31859278730000    2.14803117240000    0.51703720120000
H        -0.25254814300000    1.95316963590000   -0.92838289750000
H         0.00606507170000    0.53503996110000   -1.94739667560000
H         0.74079491970000   -0.76054887210000    0.05825147570000
H         0.48219771190000    0.66083179510000    1.06707939050000
H         2.18773926730000    1.91127597570000   -0.25023174360000
H         2.44587236540000    0.49307628250000   -1.26522003180000
H         3.19164436910000   -0.80061210210000    0.72343625870000
H         2.91857523160000    0.60785906480000    1.74706996370000
H         4.61913122660000    1.88328026620000    0.45742526040000
H         4.87740371360000    0.48284688990000   -0.58413731460000
H         5.67387771730000   -0.83807942820000    1.34475482350000
H         5.30288395440000    0.49695201020000    2.43421838220000
H         7.66899757730000    0.50049218800000    2.04836183150000
H         6.99013639150000    1.91274545820000    1.24073378160000
H         7.70074497130000   -0.71286176820000   -0.15221421600000
H         8.70748270800000    0.73571498160000   -0.14898334850000
H         7.13910926760000    0.75916921160000   -0.94786114790000
H        -0.54196626860000   -1.65323030050000   -2.06325912690000
H        -3.03951695910000   -3.34983199260000   -1.56725372500000
H        -1.54046326620000   -3.82850939410000   -2.50973993170000
$end

$rem
BASIS = 6-31G*
GUI = 2
METHOD = B3LYP
PRINT_ORBITALS false
MOLDEN_FORMAT false
--------------------------------------------------------------

             Standard Nuclear Orientation (Angstroms)
    I     Atom           X                Y                Z
 ----------------------------------------------------------------
    1      C       6.0283233939     1.7910126176    -0.7373540291
    2      C       4.8430578637     2.0327914559    -0.1839200251
    3      C       3.8240085395     1.0475535818     0.0476303954
    4      C       2.5931811658     1.2497893974     0.6174011470
    5      C       1.8057678579     0.0885727731     0.7210233726
    6      C       0.4153591702     0.1001655488     1.2749182236
    7      C      -0.6221259041     0.2118690645     0.1512959433
    8      C      -2.0470938347     0.2450703277     0.6959876389
    9      C      -3.0829901869     0.3546527523    -0.4200806362
   10      C      -4.5087019063     0.4036869091     0.1242519724
   11      C      -5.5407205685     0.5010194313    -0.9971777249
   12      C      -6.9731472463     0.6719316056    -0.4904112467
   13      C      -7.5024333147    -0.5556385570     0.2420042068
   14      C       2.4420068513    -1.0238874627     0.2117420925
   15      C       1.9437217527    -2.3691808531     0.1421565008
   16      C       2.5898761668    -3.3947594764    -0.4069783360
   17      S       4.0282198927    -0.6221213066    -0.3848543319
   18      H       6.7543395420     2.5705326482    -0.8851805520
   19      H       6.3046801560     0.7999143995    -1.0573607237
   20      H       4.5805390673     3.0344400852     0.1336082060
   21      H       2.2631465434     2.2158086351     0.9594733479
   22      H       0.3074182175     0.9533619226     1.9479599517
   23      H       0.2282230655    -0.8075925172     1.8524129055
   24      H      -0.5088745381    -0.6359171924    -0.5283889734
   25      H      -0.4293833996     1.1212040662    -0.4228649471
   26      H      -2.1556122530     1.0956047059     1.3735954306
   27      H      -2.2345553968    -0.6628450469     1.2748698599
   28      H      -2.9818204738    -0.5014149552    -1.0915820390
   29      H      -2.8876968291     1.2564036830    -1.0055697219
   30      H      -4.6126613221     1.2679235173     0.7849995131
   31      H      -4.6917115372    -0.4933398351     0.7181161527
   32      H      -5.4836825941    -0.3954452254    -1.6191986629
   33      H      -5.2897441537     1.3564547161    -1.6297170207
   34      H      -7.6216249003     0.8779840114    -1.3454821616
   35      H      -7.0188298523     1.5380962127     0.1738811550
   36      H      -7.4244375415    -1.4379479538    -0.3897902977
   37      H      -8.5481417743    -0.4154687500     0.5067201507
   38      H      -6.9439814075    -0.7359497685     1.1567297831
   39      H       0.9644042062    -2.5203109840     0.5769043885
   40      H       3.5633293570    -3.2721377547    -0.8522851299
   41      H       2.1666207341    -4.3833124106    -0.4291182767
 ----------------------------------------------------------------

    9   -1022.3152459818      1.56e-06  Convergence criterion met
 Total energy in the final basis set =    -1022.3152459818

                    Orbital Energies (a.u.)
 --------------------------------------------------------------

 Alpha MOs
 -- Occupied --
-88.8959 -10.2148 -10.2110 -10.1961 -10.1950 -10.1911 -10.1871 -10.1850
-10.1800 -10.1789 -10.1786 -10.1755 -10.1736 -10.1734 -10.1722 -10.1716
-10.1668  -7.9580  -5.9220  -5.9184  -5.9147  -0.8879  -0.8168  -0.8060
 -0.7936  -0.7740  -0.7584  -0.7272  -0.7085  -0.6843  -0.6455  -0.6254
 -0.6019  -0.5789  -0.5691  -0.5624  -0.5470  -0.5131  -0.4936  -0.4854
 -0.4643  -0.4533  -0.4473  -0.4429  -0.4305  -0.4234  -0.4128  -0.4068
 -0.3996  -0.3885  -0.3829  -0.3806  -0.3727  -0.3613  -0.3567  -0.3537
 -0.3449  -0.3391  -0.3330  -0.3276  -0.3240  -0.3221  -0.3178  -0.3151
 -0.2959  -0.2665  -0.2422  -0.1944

          Ground-State Mulliken Net Atomic Charges

     Atom                 Charge (a.u.)
  ----------------------------------------
      1 C                    -0.374680
      2 C                    -0.055013
      3 C                    -0.135648
      4 C                    -0.179649
      5 C                     0.156171
      6 C                    -0.348700
      7 C                    -0.253360
      8 C                    -0.251815
      9 C                    -0.253192
     10 C                    -0.253962
     11 C                    -0.248471
     12 C                    -0.249739
     13 C                    -0.443844
     14 C                    -0.201279
     15 C                    -0.054084
     16 C                    -0.377240
     17 S                     0.239037
     18 H                     0.145902
     19 H                     0.156742
     20 H                     0.136767
     21 H                     0.130880
     22 H                     0.142019
     23 H                     0.145199
     24 H                     0.141096
     25 H                     0.137545
     26 H                     0.127821
     27 H                     0.127042
     28 H                     0.129443
     29 H                     0.128764
     30 H                     0.126072
     31 H                     0.132341
     32 H                     0.126428
     33 H                     0.126494
     34 H                     0.129229
     35 H                     0.128968
     36 H                     0.140839
     37 H                     0.142077
     38 H                     0.146797
     39 H                     0.136009
     40 H                     0.156846
     41 H                     0.144147
  ----------------------------------------
  Sum of atomic charges =     0.000000

                    Cartesian Multipole Moments
 -----------------------------------------------------------------
    Charge (ESU x 10^10)
                 0.0000
    Dipole Moment (Debye)
         X      -1.1816      Y       0.6381      Z       0.3930
       Tot       1.3993
    Quadrupole Moments (Debye-Ang)
        XX    -115.1240     XY       3.3461     YY    -106.4506
        XZ      -1.9091     YZ       1.7496     ZZ    -115.9245

 Total job time:  69.98s(wall), 69.77s(cpu)
        *  Thank you very much for using Q-Chem.  Have a nice day.  *
