 Q-Chem 5.2, Q-Chem, Inc., Pleasanton, CA (2019)
 Q-Chem 5.2.1 for Intel X86 EM64T Linux

User input:
--------------------------------------------------------------
$molecule
0 1
C        -3.86668815480000   -0.30868060540000   -0.48811700980000
C        -2.89198404640000   -1.03039634990000    0.05623305760000
C        -1.48982412740000   -0.69067622620000    0.09596802310000
N        -0.57839678890000   -1.71949341660000    0.22668577180000
C         0.67639259100000   -1.23805171620000    0.14007189090000
N         1.81435873120000   -1.97008748490000    0.21619216490000
C         2.89375931980000   -1.27738983050000    0.10363151380000
N         2.93558504110000    0.06496686730000   -0.07762446150000
C         1.80714175120000    0.90874087670000   -0.16866326370000
O         1.96460788630000    2.09844128900000   -0.34123133370000
C         0.59581289720000    0.14856973560000   -0.04146153940000
C        -0.78450473790000    0.50046558550000   -0.05267022320000
C        -1.22474112620000    1.88078332850000   -0.12278649430000
C        -2.28692661140000    2.38901308280000    0.48846785970000
H        -4.88351219590000   -0.66057557620000   -0.49322121500000
H        -3.67814902830000    0.64448188910000   -0.94885968560000
H        -3.12369599220000   -2.00281543640000    0.47780441280000
H        -0.81556787060000   -2.69268720170000    0.33069998600000
H         3.83977741570000   -1.79743616710000    0.15517194170000
H         3.82809469900000    0.53613188480000   -0.15956228540000
H        -0.54201683070000    2.53009482250000   -0.65500580090000
H        -2.95327468300000    1.78247389780000    1.07870990120000
H        -2.51709695180000    3.43872171230000    0.42787278380000
$end

$rem
BASIS = 6-31G*
GUI = 2
METHOD = B3LYP
PRINT_ORBITALS false
MOLDEN_FORMAT false
--------------------------------------------------------------

             Standard Nuclear Orientation (Angstroms)
    I     Atom           X                Y                Z
 ----------------------------------------------------------------
    1      C       3.7572903441     0.6964005048    -0.5192109920
    2      C       2.7110909680     1.3356095546    -0.0052874891
    3      C       1.3528106199     0.8515146078     0.0560936713
    4      N       0.3373407607     1.7829976294     0.1421871087
    5      C      -0.8592644275     1.1678031989     0.0833968078
    6      N      -2.0684870319     1.7779387069     0.1297967396
    7      C      -3.0682739812     0.9702708544     0.0542701392
    8      N      -2.9674030528    -0.3759963792    -0.0636883932
    9      C      -1.7557912854    -1.0988276430    -0.1197132989
   10      O      -1.7860996343    -2.3053088527    -0.2356740174
   11      C      -0.6319851757    -0.2094767916    -0.0332672120
   12      C       0.7778679618    -0.4133078163    -0.0336435023
   13      C       1.3620107092    -1.7409853547    -0.0407881166
   14      C       2.4715483562    -2.1045113895     0.5892455374
   15      H       4.7310850763     1.1533980107    -0.5449860425
   16      H       3.6712631502    -0.2919867985    -0.9339873377
   17      H       2.8380408686     2.3458541203     0.3692807333
   18      H       0.4699168772     2.7796495426     0.1994912051
   19      H      -4.0641358580     1.3890228777     0.0852654757
   20      H      -3.8048635617    -0.9423862545    -0.1197791708
   21      H       0.7524354017    -2.4832827329    -0.5391733261
   22      H       3.0693227941    -1.4037029401     1.1476615487
   23      H       2.8117530577    -3.1256130565     0.5769775981
 ----------------------------------------------------------------

    9    -625.9396889330      5.52e-06  Convergence criterion met
 Total energy in the final basis set =     -625.9396889330

                    Orbital Energies (a.u.)
 --------------------------------------------------------------

 Alpha MOs
 -- Occupied --
-19.1120 -14.3944 -14.3941 -14.3385 -10.2926 -10.2775 -10.2563 -10.2288
-10.2017 -10.1922 -10.1866 -10.1828 -10.1805 -10.1683  -1.0478  -1.0143
 -0.9812  -0.9037  -0.8195  -0.8003  -0.7596  -0.7292  -0.6755  -0.6582
 -0.6284  -0.5986  -0.5651  -0.5472  -0.5322  -0.5093  -0.4860  -0.4699
 -0.4585  -0.4510  -0.4369  -0.4218  -0.4155  -0.4149  -0.3961  -0.3724
 -0.3653  -0.3524  -0.3114  -0.2954  -0.2865  -0.2733  -0.2566  -0.2373
 -0.1910

          Ground-State Mulliken Net Atomic Charges

     Atom                 Charge (a.u.)
  ----------------------------------------
      1 C                    -0.342507
      2 C                    -0.130129
      3 C                     0.287439
      4 N                    -0.720086
      5 C                     0.482312
      6 N                    -0.497109
      7 C                     0.238117
      8 N                    -0.622763
      9 C                     0.568518
     10 O                    -0.518799
     11 C                    -0.015512
     12 C                     0.008945
     13 C                    -0.121864
     14 C                    -0.346878
     15 H                     0.143375
     16 H                     0.166177
     17 H                     0.122634
     18 H                     0.335844
     19 H                     0.164999
     20 H                     0.344630
     21 H                     0.164115
     22 H                     0.147622
     23 H                     0.140923
  ----------------------------------------
  Sum of atomic charges =     0.000000

                    Cartesian Multipole Moments
 -----------------------------------------------------------------
    Charge (ESU x 10^10)
                 0.0000
    Dipole Moment (Debye)
         X      -0.5525      Y       3.1687      Z       0.1636
       Tot       3.2206
    Quadrupole Moments (Debye-Ang)
        XX     -62.0693     XY       0.7968     YY     -82.2145
        XZ       0.3728     YZ       0.6609     ZZ     -81.9239

 Total job time:  36.86s(wall), 36.74s(cpu)
        *  Thank you very much for using Q-Chem.  Have a nice day.  *
