 Q-Chem 5.2, Q-Chem, Inc., Pleasanton, CA (2019)
 Q-Chem 5.2.1 for Intel X86 EM64T Linux

User input:
--------------------------------------------------------------
$molecule
0 1
C        -2.17327771550000   -3.13287262680000   -0.21469837520000
C        -2.21308513800000   -1.82675893880000   -0.44938811030000
C        -1.10077510100000   -0.91054066470000   -0.22046660950000
C         0.21847955120000   -1.35982356720000   -0.22089786980000
C         1.29212942450000   -0.50788890540000   -0.01138415110000
C         2.65423698030000   -1.12001753100000   -0.10752964640000
O         2.89536018160000   -2.22530338600000    0.28903664110000
O         3.60251744210000   -0.37858447400000   -0.70756793540000
C         1.07343124190000    0.85414026510000    0.25259187160000
C         2.16909761180000    1.77696391300000    0.56198230110000
C         2.19744241170000    3.05364496070000    0.20124105810000
C        -0.24421014730000    1.30264822500000    0.27528612610000
C        -1.31765453910000    0.45612608470000    0.02904735160000
C        -2.69066730140000    1.05506333200000    0.03461384240000
O        -3.50870443070000    0.88010216110000   -0.82257782690000
O        -2.95265896290000    1.85923668620000    1.08219792650000
H        -3.02989952320000   -3.75682876720000   -0.40134264210000
H        -1.30374433420000   -3.62692449280000    0.18597123020000
H        -3.12099635830000   -1.37247853590000   -0.81791300770000
H         0.43390012020000   -2.39788439880000   -0.42014797570000
H         3.27725249280000    0.48717358150000   -0.99268812280000
H         2.98860788470000    1.36064871220000    1.13526203000000
H         1.41533600270000    3.50022625190000   -0.39051150470000
H         3.01741089580000    3.69607253330000    0.47072386740000
H        -0.42485846390000    2.34945437740000    0.48080000020000
H        -2.22561487090000    1.89230320110000    1.71846992670000
$end

$rem
BASIS = 6-31G*
GUI = 2
METHOD = B3LYP
PRINT_ORBITALS false
MOLDEN_FORMAT false
--------------------------------------------------------------

             Standard Nuclear Orientation (Angstroms)
    I     Atom           X                Y                Z
 ----------------------------------------------------------------
    1      C      -2.1666388062    -3.1509998549     0.2015473658
    2      C      -2.2124204303    -1.8866161489    -0.2007395410
    3      C      -1.1026655328    -0.9448132664    -0.0980458424
    4      C       0.2182819891    -1.3860620087    -0.0462255611
    5      C       1.2895412976    -0.5106451985     0.0457614995
    6      C       2.6535607165    -1.1256610054     0.0236484689
    7      O       2.9005681952    -2.1692256025     0.5593930696
    8      O       3.5964722226    -0.4654569215    -0.6720908643
    9      C       1.0667540736     0.8734268995     0.1314701763
   10      C       2.1601785460     1.8321862332     0.3131682234
   11      C       2.1821306780     3.0512211613    -0.2105913758
   12      C      -0.2524836828     1.3168067359     0.1018169697
   13      C      -1.3237125364     0.4419828307    -0.0272876725
   14      C      -2.6989672970     1.0321085058    -0.0932186109
   15      O      -3.5199256793     0.7445457025    -0.9165707122
   16      O      -2.9596232559     1.9647919664     0.8421566405
   17      H      -3.0216481546    -3.7966976691     0.1015892958
   18      H      -1.2935485352    -3.5859509361     0.6589778151
   19      H      -3.1236009208    -1.4870443075    -0.6209496379
   20      H       0.4368263483    -2.4405128938    -0.1098542525
   21      H       3.2667075818     0.3548293562    -1.0658084324
   22      H       2.9836750743     1.4965892301     0.9318710606
   23      H       1.3958441753     3.4145469580    -0.8517187276
   24      H       3.0007649064     3.7258839355    -0.0307285764
   25      H      -0.4362634256     2.3808556630     0.1703572803
   26      H      -2.2300430020     2.0826502033     1.4653345070
 ----------------------------------------------------------------

    9    -764.1592834066      8.37e-06  Convergence criterion met
 Total energy in the final basis set =     -764.1592834066

                    Orbital Energies (a.u.)
 --------------------------------------------------------------

 Alpha MOs
 -- Occupied --
-19.2086 -19.2039 -19.1474 -19.1421 -10.3341 -10.3293 -10.2347 -10.2319
-10.2293 -10.2290 -10.2264 -10.2244 -10.2170 -10.2157 -10.1996 -10.1950
 -1.1186  -1.1140  -1.0364  -1.0311  -0.9043  -0.8407  -0.8010  -0.7949
 -0.7437  -0.6876  -0.6682  -0.6430  -0.6277  -0.6051  -0.5970  -0.5582
 -0.5417  -0.5227  -0.4852  -0.4719  -0.4678  -0.4631  -0.4590  -0.4555
 -0.4485  -0.4432  -0.4319  -0.4088  -0.4061  -0.3894  -0.3852  -0.3799
 -0.3673  -0.3389  -0.3280  -0.3241  -0.2968  -0.2939  -0.2869  -0.2729
 -0.2439

          Ground-State Mulliken Net Atomic Charges

     Atom                 Charge (a.u.)
  ----------------------------------------
      1 C                    -0.338439
      2 C                    -0.136496
      3 C                     0.136303
      4 C                    -0.239026
      5 C                     0.016631
      6 C                     0.528749
      7 O                    -0.433244
      8 O                    -0.567807
      9 C                     0.123114
     10 C                    -0.198330
     11 C                    -0.332748
     12 C                    -0.268111
     13 C                     0.001418
     14 C                     0.542399
     15 O                    -0.430215
     16 O                    -0.559441
     17 H                     0.157139
     18 H                     0.156437
     19 H                     0.184954
     20 H                     0.172009
     21 H                     0.419906
     22 H                     0.175699
     23 H                     0.160852
     24 H                     0.164299
     25 H                     0.146431
     26 H                     0.417516
  ----------------------------------------
  Sum of atomic charges =     0.000000

                    Cartesian Multipole Moments
 -----------------------------------------------------------------
    Charge (ESU x 10^10)
                -0.0000
    Dipole Moment (Debye)
         X       1.0650      Y       3.1298      Z       0.8704
       Tot       3.4187
    Quadrupole Moments (Debye-Ang)
        XX    -112.1006     XY      18.8688     YY     -85.1038
        XZ      -7.4652     YZ       2.9998     ZZ     -90.3962

 Total job time:  47.62s(wall), 47.48s(cpu)
        *  Thank you very much for using Q-Chem.  Have a nice day.  *
