 Q-Chem 5.4, Q-Chem, Inc., Pleasanton, CA (2021)
 Q-Chem 5.4.2 for Intel X86 EM64T Linux

User input:
--------------------------------------------------------------
$molecule
0 1
C            1.57398827560000        3.06736153830000        0.04325909440000
C            1.21828417140000        1.89780300530000        0.55598724640000
C           -0.03165313770000        1.20088879390000        0.26052859550000
C           -1.20020181450000        1.92477294320000        0.02470534200000
C           -2.41475974580000        1.30048535090000       -0.17263474020000
C           -2.48133002810000       -0.08128190360000       -0.11985727730000
F           -3.65976331210000       -0.70144122250000       -0.29063371750000
C           -1.33347532640000       -0.82212484270000        0.11201695370000
F           -1.40347204240000       -2.16484566040000        0.15277341920000
C           -0.09522937480000       -0.20288338730000        0.28523502920000
C            1.06491660110000       -1.07094452070000        0.48265047970000
C            2.25006171100000       -0.91958813280000       -0.08519844830000
F            2.61462880200000        0.02799464360000       -0.93695610540000
F            3.26923926710000       -1.74720310370000        0.11149678360000
H            2.50256196790000        3.53859239890000        0.31305333400000
H            0.97024563550000        3.58198748200000       -0.68471474260000
H            1.87746405390000        1.39396238990000        1.25132640970000
H           -1.15375611470000        3.00193034230000        0.02081225760000
H           -3.31624114260000        1.86335066660000       -0.35318964200000
H            0.92349466400000       -1.95610146960000        1.08578168960000
$end

$rem
BASIS = 6-31G*
GUI = 2
METHOD = B3LYP
PRINT_ORBITALS false
MOLDEN_FORMAT false
$end
--------------------------------------------------------------

             Standard Nuclear Orientation (Angstroms)
    I     Atom           X                Y                Z
 ----------------------------------------------------------------
    1      C       1.5925157644     2.9772822291     0.0345355978
    2      C       1.2309847303     1.8081247241     0.5440930232
    3      C      -0.0261806659     1.1223049882     0.2533784458
    4      C      -1.1905363948     1.8563155934     0.0283650092
    5      C      -2.4111377585     1.2423857825    -0.1641228412
    6      C      -2.4881140279    -0.1390564769    -0.1173281128
    7      F      -3.6723921404    -0.7492624453    -0.2834642217
    8      C      -1.3446081174    -0.8898463856     0.1037896869
    9      F      -1.4247832192    -2.2321609502     0.1387666309
   10      C      -0.1005120114    -0.2810329768     0.2719819301
   11      C       1.0540770349    -1.1589696356     0.4579739566
   12      C       2.2367411653    -1.0141389738    -0.1167083268
   13      F       2.6032605113    -0.0654284532    -0.9663702041
   14      F       3.2506788038    -1.8505358451     0.0696493504
   15      H       2.5264163124     3.4400373037     0.3005883468
   16      H       0.9881920519     3.4999740371    -0.6871825390
   17      H       1.8906199646     1.2959412897     1.2328742093
   18      H      -1.1357423934     2.9330873390     0.0291693383
   19      H      -3.3093414131     1.8130565835    -0.3363180114
   20      H       0.9096015635    -2.0458205199     1.0578844433
 ----------------------------------------------------------------

    9    -783.9689660820      4.46e-06  Convergence criterion met
 Total energy in the final basis set =     -783.9689660820

                    Orbital Energies (a.u.)
 --------------------------------------------------------------

 Alpha MOs
 -- Occupied --
-24.7459 -24.7421 -24.7208 -24.7165 -10.3660 -10.2837 -10.2827 -10.2229
-10.2114 -10.2112 -10.2061 -10.2024 -10.1972 -10.1859  -1.2916  -1.2377
 -1.2308  -1.2242  -0.8893  -0.8210  -0.8021  -0.7567  -0.7357  -0.6632
 -0.6439  -0.6239  -0.5846  -0.5803  -0.5628  -0.5322  -0.5287  -0.5206
 -0.5051  -0.4892  -0.4844  -0.4556  -0.4505  -0.4470  -0.4439  -0.4407
 -0.4305  -0.4225  -0.4094  -0.3897  -0.3732  -0.3673  -0.3530  -0.2988
 -0.2927  -0.2425  -0.2303

          Ground-State Mulliken Net Atomic Charges

     Atom                 Charge (a.u.)
  ----------------------------------------
      1 C                    -0.338942
      2 C                    -0.128588
      3 C                     0.122732
      4 C                    -0.183344
      5 C                    -0.201256
      6 C                     0.325716
      7 F                    -0.282572
      8 C                     0.254490
      9 F                    -0.275922
     10 C                     0.014794
     11 C                    -0.325347
     12 C                     0.571844
     13 F                    -0.224825
     14 F                    -0.240108
     15 H                     0.147280
     16 H                     0.145176
     17 H                     0.140579
     18 H                     0.142239
     19 H                     0.155052
     20 H                     0.181002
  ----------------------------------------
  Sum of atomic charges =     0.000000

                    Cartesian Multipole Moments
 -----------------------------------------------------------------
    Charge (ESU x 10^10)
                 0.0000
    Dipole Moment (Debye)
         X       0.4231      Y       1.6616      Z       0.4860
       Tot       1.7821
    Quadrupole Moments (Debye-Ang)
        XX     -78.5774     XY      -3.1395     YY     -72.6930
        XZ       1.7544     YZ      -1.6743     ZZ     -76.2266

 Total job time:  56.36s(wall), 52.34s(cpu)
        *  Thank you very much for using Q-Chem.  Have a nice day.  *
