 Q-Chem 5.2, Q-Chem, Inc., Pleasanton, CA (2019)
 Q-Chem 5.2.1 for Intel X86 EM64T Linux

User input:
--------------------------------------------------------------
$molecule
0 1
C         4.27439393400000   -3.91620812200000    0.12975266500000
C         4.21102719660000   -2.72651550220000   -0.46191265420000
C         3.42080879690000   -1.61806477150000   -0.00367901180000
C         3.32354946340000   -0.37818978480000   -0.57904926960000
C         2.46891396630000    0.51233764320000    0.09936040080000
C         2.20618768840000    1.89364922570000   -0.41443056980000
C         1.19746852720000    1.87340467540000   -1.57328582990000
C        -0.20529805310000    1.43349582690000   -1.15215978460000
C        -0.97771912340000    2.53093259320000   -0.42099067520000
C        -2.25786428930000    2.02149967100000    0.24139420780000
C        -3.31829188750000    1.57256393320000   -0.76150892610000
C        -4.60358026910000    1.13504961720000   -0.06262490070000
C        -5.75142848360000    0.83835957630000   -1.02920643910000
C        -5.48774357450000   -0.29891076860000   -2.01764626130000
C        -5.24813817420000   -1.64273630610000   -1.33983183350000
C         1.89669299080000   -0.06012888160000    1.21566931190000
C         0.98120854980000    0.53025787590000    2.15294288480000
C         0.40887031760000   -0.11117152580000    3.16849163710000
S         2.43058379370000   -1.70743047520000    1.42039427710000
H         4.88507238850000   -4.71103193120000   -0.26003551620000
H         3.71310505760000   -4.12691603580000    1.02514429510000
H         4.78136750640000   -2.53078590980000   -1.36162809560000
H         3.86079995630000   -0.10879603030000   -1.47244556680000
H         3.14650004960000    2.31311388560000   -0.78108944810000
H         1.84388808650000    2.54026952610000    0.38404150410000
H         1.57015678680000    1.18876681480000   -2.33870347590000
H         1.14523076670000    2.87101380390000   -2.01539862290000
H        -0.12813669780000    0.55369531110000   -0.50969656070000
H        -0.75977457430000    1.14243733150000   -2.04596659350000
H        -1.22588048590000    3.32903961490000   -1.12519332740000
H        -0.34279723060000    2.96739625760000    0.35254880320000
H        -2.67515107140000    2.82124713220000    0.85931009000000
H        -2.00999162870000    1.18866080380000    0.90459697510000
H        -2.92651407230000    0.74477741510000   -1.35221186880000
H        -3.54126964370000    2.39782544530000   -1.44266929970000
H        -4.92688913500000    1.93323724090000    0.61123633580000
H        -4.40018145460000    0.25661741180000    0.55199514680000
H        -5.97337540030000    1.74567574260000   -1.59725947410000
H        -6.64109951190000    0.59183092900000   -0.44380001950000
H        -4.63130032620000   -0.05017245410000   -2.64644759100000
H        -6.35768741030000   -0.38485739790000   -2.67388864840000
H        -4.32633927310000   -1.63170723570000   -0.76424731540000
H        -5.17143750170000   -2.43220685330000   -2.08439501000000
H        -6.07086169920000   -1.88275487690000   -0.66947948750000
H         0.75877537440000    1.57561297710000    1.98884416810000
H         0.60295652630000   -1.15401472000000    3.35785213790000
H        -0.26934791320000    0.38614173900000    3.83913025170000
$end

$rem
BASIS = 6-31G*
GUI = 2
METHOD = B3LYP
PRINT_ORBITALS false
MOLDEN_FORMAT false
--------------------------------------------------------------

             Standard Nuclear Orientation (Angstroms)
    I     Atom           X                Y                Z
 ----------------------------------------------------------------
    1      C       5.2160235124    -2.6997668434    -0.6789153866
    2      C       4.7530034268    -1.5760240151    -1.2195318673
    3      C       3.7964758839    -0.6979269421    -0.6054579281
    4      C       3.2911896940     0.4659722929    -1.1229757839
    5      C       2.3660347291     1.1207830626    -0.2869185127
    6      C       1.6776781309     2.3802984004    -0.7121411063
    7      C       0.5259243955     2.0833788483    -1.6848547406
    8      C      -0.6265806957     1.3077023313    -1.0455746958
    9      C      -1.5171037773     2.1844309560    -0.1658442869
   10      C      -2.4942882625     1.3769981793     0.6886790154
   11      C      -3.5598788513     0.6551495404    -0.1330970632
   12      C      -4.5540553876    -0.0834306591     0.7601756752
   13      C      -5.7354298680    -0.6797506912    -0.0070382003
   14      C      -5.3627980284    -1.7291829633    -1.0557346622
   15      C      -4.6781858526    -2.9555034413    -0.4639961425
   16      C       2.1558834045     0.4408109599     0.8940872926
   17      C       1.2929541876     0.7944306870     1.9874565307
   18      C       1.0831433719     0.0460058241     3.0673554351
   19      S       3.1176691077    -1.0120845039     0.9620378152
   20      H       5.9334756240    -3.3192456512    -1.1869669223
   21      H       4.8868850587    -3.0310456487     0.2922135597
   22      H       5.0938350323    -1.2569931292    -2.1968440632
   23      H       3.5828600533     0.8478928790    -2.0865281169
   24      H       2.4042674520     3.0192338302    -1.2204777523
   25      H       1.3036667852     2.9269303973     0.1528707089
   26      H       0.9250935094     1.5032152232    -2.5200576491
   27      H       0.1476732578     3.0268537180    -2.0851018212
   28      H      -0.2205866640     0.4879591848    -0.4489577029
   29      H      -1.2320504768     0.8693961168    -1.8407752231
   30      H      -2.0756205777     2.8805176914    -0.7967028255
   31      H      -0.8923784337     2.7817366103     0.5011893444
   32      H      -2.9901823022     2.0545135590     1.3891119596
   33      H      -1.9341668298     0.6465472627     1.2782591916
   34      H      -3.0765348158    -0.0555054674    -0.8031704515
   35      H      -4.0974131077     1.3843108037    -0.7447635351
   36      H      -4.9505863150     0.6175122109     1.4998806083
   37      H      -4.0329262504    -0.8701450985     1.3081508873
   38      H      -6.2736698322     0.1309677497    -0.5052356116
   39      H      -6.4206827984    -1.1347805203     0.7129394831
   40      H      -4.7171006718    -1.2812435471    -1.8128225711
   41      H      -6.2805255299    -2.0455042652    -1.5582883788
   42      H      -3.7057097351    -2.6997900581    -0.0516452501
   43      H      -4.5306711927    -3.7121301339    -1.2316396373
   44      H      -5.2869498412    -3.3856926225     0.3285938242
   45      H       0.7876276258     1.7454970359     1.8910715731
   46      H       1.5651212616    -0.9094214388     3.1934698374
   47      H       0.4246039116     0.3655122104     3.8555800552
 ----------------------------------------------------------------

    9   -1100.9368642109      1.75e-06  Convergence criterion met
 Total energy in the final basis set =    -1100.9368642109

                    Orbital Energies (a.u.)
 --------------------------------------------------------------

 Alpha MOs
 -- Occupied --
-88.8970 -10.2165 -10.2134 -10.1974 -10.1961 -10.1929 -10.1875 -10.1862
-10.1815 -10.1801 -10.1793 -10.1719 -10.1705 -10.1698 -10.1694 -10.1689
-10.1686 -10.1682 -10.1644  -7.9591  -5.9233  -5.9195  -5.9156  -0.8894
 -0.8177  -0.8074  -0.7984  -0.7810  -0.7668  -0.7428  -0.7189  -0.7062
 -0.6814  -0.6522  -0.6265  -0.6157  -0.5916  -0.5717  -0.5604  -0.5481
 -0.5454  -0.5153  -0.4955  -0.4732  -0.4699  -0.4577  -0.4514  -0.4507
 -0.4368  -0.4287  -0.4255  -0.4154  -0.4043  -0.3990  -0.3915  -0.3891
 -0.3837  -0.3785  -0.3739  -0.3632  -0.3581  -0.3522  -0.3470  -0.3407
 -0.3380  -0.3263  -0.3252  -0.3211  -0.3153  -0.3110  -0.3103  -0.3005
 -0.2947  -0.2679  -0.2435  -0.1970

          Ground-State Mulliken Net Atomic Charges

     Atom                 Charge (a.u.)
  ----------------------------------------
      1 C                    -0.373804
      2 C                    -0.055230
      3 C                    -0.133680
      4 C                    -0.177593
      5 C                     0.157103
      6 C                    -0.346273
      7 C                    -0.255906
      8 C                    -0.266105
      9 C                    -0.259711
     10 C                    -0.260069
     11 C                    -0.258040
     12 C                    -0.257282
     13 C                    -0.251852
     14 C                    -0.251578
     15 C                    -0.444589
     16 C                    -0.211138
     17 C                    -0.050437
     18 C                    -0.380821
     19 S                     0.236265
     20 H                     0.146690
     21 H                     0.157459
     22 H                     0.137542
     23 H                     0.132740
     24 H                     0.145438
     25 H                     0.145476
     26 H                     0.134630
     27 H                     0.131722
     28 H                     0.150865
     29 H                     0.135283
     30 H                     0.127487
     31 H                     0.123079
     32 H                     0.122978
     33 H                     0.135805
     34 H                     0.141702
     35 H                     0.124110
     36 H                     0.125592
     37 H                     0.133634
     38 H                     0.124589
     39 H                     0.124305
     40 H                     0.134745
     41 H                     0.128707
     42 H                     0.148203
     43 H                     0.141503
     44 H                     0.140984
     45 H                     0.141248
     46 H                     0.157943
     47 H                     0.146282
  ----------------------------------------
  Sum of atomic charges =     0.000000

                    Cartesian Multipole Moments
 -----------------------------------------------------------------
    Charge (ESU x 10^10)
                 0.0000
    Dipole Moment (Debye)
         X      -0.1714      Y       0.7723      Z      -0.8856
       Tot       1.1875
    Quadrupole Moments (Debye-Ang)
        XX    -127.1075     XY      -2.1098     YY    -123.5985
        XZ      -6.0279     YZ      -1.2943     ZZ    -122.7149

 Total job time:  91.84s(wall), 91.60s(cpu)
        *  Thank you very much for using Q-Chem.  Have a nice day.  *
