 Q-Chem 5.2, Q-Chem, Inc., Pleasanton, CA (2019)
 Q-Chem 5.2.1 for Intel X86 EM64T Linux

User input:
--------------------------------------------------------------
$molecule
0 1
C         1.84956337350000    2.01028940940000    0.25750246360000
C         1.92705252500000    0.76169059420000   -0.18381828520000
C         0.86183248750000   -0.21936690810000   -0.11733212100000
C         1.03572099490000   -1.57458984820000   -0.03866289470000
O        -0.14154840480000   -2.21235447360000    0.05346143850000
C        -1.09908251940000   -1.27213414920000    0.02635740840000
C        -0.56195232650000   -0.01768052490000   -0.07972865880000
C        -1.27842223830000    1.23508148540000   -0.21530417780000
C        -2.50523934330000    1.45249539390000    0.23938699660000
H         2.68627105400000    2.68392302090000    0.18393638920000
H         0.96141366680000    2.39832528160000    0.72585598470000
H         2.85469022250000    0.39280925560000   -0.60412294890000
H         1.92518297190000   -2.17335972050000   -0.02045497750000
H        -2.11671178170000   -1.60695814140000    0.05943776470000
H        -0.74450555800000    2.01690230960000   -0.73924015950000
H        -3.05155422530000    0.69929943610000    0.78132319800000
H        -3.00244394910000    2.39606827520000    0.09453062790000
$end

$rem
BASIS = 6-31G*
GUI = 2
METHOD = B3LYP
PRINT_ORBITALS false
MOLDEN_FORMAT false
--------------------------------------------------------------

             Standard Nuclear Orientation (Angstroms)
    I     Atom           X                Y                Z
 ----------------------------------------------------------------
    1      C      -1.5900168326    -2.1755047426     0.2667207024
    2      C      -1.8349094082    -0.9375966215    -0.1423986973
    3      C      -0.8960639546     0.1656165092    -0.0869192988
    4      C      -1.2316271137     1.4873521252     0.0291307126
    5      O      -0.1387536513     2.2632384267     0.0985705575
    6      C       0.9251047943     1.4487094424     0.0187694991
    7      C       0.5421423659     0.1399891197    -0.0995854281
    8      C       1.4013786045    -1.0122055211    -0.2874234062
    9      C       2.6605711860    -1.0857809933     0.1225933903
   10      H      -2.3400619676    -2.9454298732     0.2040984925
   11      H      -0.6453951941    -2.4603163083     0.6971961285
   12      H      -2.8146925668    -0.6775834386    -0.5240520178
   13      H      -2.1864981553     1.9716412308     0.0898337010
   14      H       1.8946548039     1.9055164991     0.0271851402
   15      H       0.9493207186    -1.8434620566    -0.8122814590
   16      H       3.1290516305    -0.2817502182     0.6643678207
   17      H       3.2641720924    -1.9579991563    -0.0602371098
 ----------------------------------------------------------------

    9    -384.8167801746      3.21e-06  Convergence criterion met
 Total energy in the final basis set =     -384.8167801746

                    Orbital Energies (a.u.)
 --------------------------------------------------------------

 Alpha MOs
 -- Occupied --
-19.2218 -10.2338 -10.2334 -10.1941 -10.1911 -10.1902 -10.1895 -10.1785
-10.1778  -1.1247  -0.8345  -0.7877  -0.7445  -0.7364  -0.6321  -0.6041
 -0.5725  -0.5429  -0.5098  -0.4666  -0.4608  -0.4493  -0.4390  -0.4199
 -0.4121  -0.3683  -0.3607  -0.3504  -0.3228  -0.2916  -0.2287  -0.2137

          Ground-State Mulliken Net Atomic Charges

     Atom                 Charge (a.u.)
  ----------------------------------------
      1 C                    -0.355392
      2 C                    -0.111995
      3 C                     0.056028
      4 C                     0.017422
      5 O                    -0.380680
      6 C                     0.020221
      7 C                     0.053427
      8 C                    -0.112527
      9 C                    -0.351514
     10 H                     0.142361
     11 H                     0.153111
     12 H                     0.131554
     13 H                     0.156842
     14 H                     0.157685
     15 H                     0.142835
     16 H                     0.138415
     17 H                     0.142205
  ----------------------------------------
  Sum of atomic charges =     0.000000

                    Cartesian Multipole Moments
 -----------------------------------------------------------------
    Charge (ESU x 10^10)
                 0.0000
    Dipole Moment (Debye)
         X      -0.1977      Y      -0.2309      Z      -0.1107
       Tot       0.3235
    Quadrupole Moments (Debye-Ang)
        XX     -45.9781     XY      -0.1002     YY     -50.8116
        XZ       1.2228     YZ       0.4743     ZZ     -55.3464

 Total job time:  14.67s(wall), 14.61s(cpu)
        *  Thank you very much for using Q-Chem.  Have a nice day.  *
