 Q-Chem 5.2, Q-Chem, Inc., Pleasanton, CA (2019)
 Q-Chem 5.2.1 for Intel X86 EM64T Linux

User input:
--------------------------------------------------------------
$molecule
0 1
C        -1.20952874990000   -1.49456779440000   -3.19568736000000
O        -0.26459688450000   -1.89640577700000   -2.21480339100000
C        -0.66188706260000   -2.86828301650000   -1.38107787180000
C         0.40918846910000   -3.23752774950000   -0.41465373170000
C         1.16397056560000   -2.28488012750000    0.28243406690000
N         0.87009302010000   -0.91660129430000    0.19884248740000
C         1.90850953080000    0.00437533660000    0.11543205530000
C         1.80001724400000    1.25614549430000    0.72100487650000
C         2.84452675360000    2.16137945970000    0.62263006110000
C         2.68031029430000    3.49052739500000    1.30221726270000
F         1.53519168240000    4.10349843680000    0.94983462000000
F         2.63518943240000    3.36968626610000    2.64420202310000
F         3.66940297240000    4.35305803570000    1.03591045510000
C         4.01203889010000    1.84554203120000   -0.05725836230000
C         4.11860805940000    0.59752076750000   -0.65079834440000
C         3.08405984860000   -0.31213717170000   -0.57196308020000
C        -0.46538570640000   -0.49705860400000    0.21779712620000
C        -1.41300071400000   -1.19696423270000    0.96518103550000
C        -2.73380870300000   -0.80683757760000    0.95319822070000
C        -3.15924653550000    0.29226097850000    0.20230091530000
C        -4.56959251950000    0.63600500260000    0.22469929620000
C        -5.20035749610000    1.57304797410000   -0.46873513440000
F        -4.68702531190000    2.42050808840000   -1.35400972810000
F        -6.50940911650000    1.79652696840000   -0.36810588910000
C        -2.20139245250000    0.99800623080000   -0.53097461580000
C        -0.87919219230000    0.60973606780000   -0.52432218690000
C         2.19152314300000   -2.72186885500000    1.11827313580000
C         2.45695709980000   -4.06919654490000    1.26489274960000
C         1.68453701000000   -5.01134602580000    0.60280435050000
C         0.66166776080000   -4.59195605660000   -0.22649242870000
O        -1.73205665850000   -3.41457684400000   -1.45487284410000
H        -0.69920567000000   -0.77793928340000   -3.83347564680000
H        -2.07505174660000   -1.03247157580000   -2.71648801380000
H        -1.54387593110000   -2.35773767620000   -3.77452371970000
H         0.90834478940000    1.52061900210000    1.26905291290000
H         4.81587876660000    2.56077023270000   -0.12195034020000
H         5.01733283260000    0.33838398190000   -1.18858751310000
H         3.16998918450000   -1.27595386640000   -1.05032471590000
H        -1.10884333070000   -2.04881152110000    1.55484195770000
H        -3.45281802450000   -1.36343313440000    1.53492548830000
H        -5.19720253260000    0.05106272980000    0.88135600040000
H        -2.48679539700000    1.85274722910000   -1.12163113110000
H        -0.15804024050000    1.15407073460000   -1.11500462300000
H         2.77175147360000   -1.99053556870000    1.66141877090000
H         3.25738039390000   -4.38587708280000    1.91633132620000
H         1.87872759540000   -6.06424143770000    0.73371038260000
H         0.04886541830000   -5.30624171970000   -0.75501980230000
$end

$rem
BASIS = 6-31G*
GUI = 2
METHOD = B3LYP
PRINT_ORBITALS false
MOLDEN_FORMAT false
--------------------------------------------------------------

             Standard Nuclear Orientation (Angstroms)
    I     Atom           X                Y                Z
 ----------------------------------------------------------------
    1      C      -2.0570373570    -1.5135998510    -2.6599766798
    2      O      -1.0188083880    -1.9739312057    -1.8075219847
    3      C      -1.4023994020    -2.7432700244    -0.7787077101
    4      C      -0.2397341137    -3.1983326247     0.0328633238
    5      C       0.7894037315    -2.3365304229     0.4345313019
    6      N       0.7222737070    -0.9569111327     0.1943590656
    7      C       1.8648960293    -0.2740170176    -0.2075538114
    8      C       2.0936071909     1.0374518701     0.2085688952
    9      C       3.2364589104     1.7020546133    -0.2065448156
   10      C       3.4392553261     3.1085396060     0.2793704272
   11      F       2.3684967629     3.8880943870     0.0406779409
   12      F       3.6414210142     3.1587080101     1.6113515582
   13      F       4.4880195891     3.7225562862    -0.2829993664
   14      C       4.1746090367     1.0850735703    -1.0215876805
   15      C       3.9470681681    -0.2209437732    -1.4262450966
   16      C       2.8091999123    -0.8941210545    -1.0311871946
   17      C      -0.4914844022    -0.2843157174     0.3795223343
   18      C      -1.3770443362    -0.6911925877     1.3778507447
   19      C      -2.5877930261    -0.0537725601     1.5348840436
   20      C      -2.9601829050     1.0106009662     0.7094771602
   21      C      -4.2584324096     1.6245085672     0.9225572328
   22      C      -4.8452082465     2.5782217658     0.2134094712
   23      F      -4.3810399707     3.1975854118    -0.8665656066
   24      F      -6.0506539444     3.0644597397     0.5035104072
   25      C      -2.0609457584     1.4228245393    -0.2777908328
   26      C      -0.8495947377     0.7863071703    -0.4405355590
   27      C       1.8726065170    -2.8644632848     1.1369620921
   28      C       1.9283595899    -4.2106443576     1.4401658431
   29      C       0.8909314611    -5.0546225468     1.0739921393
   30      C      -0.1894509659    -4.5439640118     0.3798132954
   31      O      -2.5430326532    -3.0738412681    -0.5816695232
   32      H      -1.5689514193    -0.9916843954    -3.4785952369
   33      H      -2.7186170278    -0.8372599704    -2.1148421169
   34      H      -2.6416647296    -2.3567731038    -3.0330336656
   35      H       1.3867826270     1.5347112388     0.8554961005
   36      H       5.0594818468     1.6159258867    -1.3331818196
   37      H       4.6636445366    -0.7131767691    -2.0652288737
   38      H       2.6330120078    -1.9058055106    -1.3637660723
   39      H      -1.1115863141    -1.5101996274     2.0294756576
   40      H      -3.2611622316    -0.3856165677     2.3105341580
   41      H      -4.8335439445     1.2560175295     1.7596419930
   42      H      -2.3080067066     2.2408514594    -0.9340720072
   43      H      -0.1780233646     1.1047355783    -1.2233901732
   44      H       2.6650138955    -2.2020785844     1.4529645088
   45      H       2.7762426649    -4.5987561035     1.9840406411
   46      H       0.9249635989    -6.1020913395     1.3291118425
   47      H      -1.0074933958    -5.1816335174     0.0810557203
 ----------------------------------------------------------------

    9   -1590.4666311641      6.07e-06  Convergence criterion met
 Total energy in the final basis set =    -1590.4666311641

                    Orbital Energies (a.u.)
 --------------------------------------------------------------

 Alpha MOs
 -- Occupied --
-24.7438 -24.7330 -24.7231 -24.7168 -24.7141 -19.1927 -19.1357 -14.3807
-10.4269 -10.3549 -10.3162 -10.2455 -10.2446 -10.2367 -10.2351 -10.2158
-10.2095 -10.2057 -10.2039 -10.2038 -10.2038 -10.2033 -10.2027 -10.2016
-10.2013 -10.2002 -10.1973 -10.1946 -10.1935 -10.1925 -10.1920  -1.3025
 -1.2845  -1.2236  -1.2133  -1.2067  -1.1106  -1.0197  -0.9952  -0.8817
 -0.8763  -0.8609  -0.8104  -0.7912  -0.7843  -0.7741  -0.7584  -0.7565
 -0.7323  -0.7196  -0.6970  -0.6575  -0.6504  -0.6355  -0.6295  -0.6208
 -0.6159  -0.5997  -0.5774  -0.5762  -0.5748  -0.5722  -0.5663  -0.5488
 -0.5362  -0.5195  -0.5181  -0.5114  -0.5070  -0.4948  -0.4837  -0.4799
 -0.4764  -0.4674  -0.4609  -0.4553  -0.4537  -0.4507  -0.4498  -0.4457
 -0.4431  -0.4402  -0.4322  -0.4254  -0.4247  -0.4154  -0.4121  -0.4093
 -0.4060  -0.4018  -0.3948  -0.3914  -0.3868  -0.3828  -0.3783  -0.3764
 -0.3718  -0.3669  -0.3606  -0.3543  -0.3494  -0.3327  -0.3036  -0.2971
 -0.2842  -0.2760  -0.2703  -0.2610  -0.2583  -0.2386  -0.1909

          Ground-State Mulliken Net Atomic Charges

     Atom                 Charge (a.u.)
  ----------------------------------------
      1 C                    -0.224070
      2 O                    -0.436388
      3 C                     0.541648
      4 C                     0.073230
      5 C                     0.253673
      6 N                    -0.649046
      7 C                     0.296491
      8 C                    -0.213679
      9 C                    -0.009731
     10 C                     0.777408
     11 F                    -0.267953
     12 F                    -0.266155
     13 F                    -0.267058
     14 C                    -0.166830
     15 C                    -0.142108
     16 C                    -0.157843
     17 C                     0.279153
     18 C                    -0.178219
     19 C                    -0.189289
     20 C                     0.197947
     21 C                    -0.297562
     22 C                     0.539922
     23 F                    -0.236992
     24 F                    -0.248233
     25 C                    -0.213696
     26 C                    -0.166067
     27 C                    -0.168654
     28 C                    -0.128984
     29 C                    -0.133335
     30 C                    -0.171739
     31 O                    -0.481834
     32 H                     0.161892
     33 H                     0.177344
     34 H                     0.168811
     35 H                     0.170878
     36 H                     0.150299
     37 H                     0.140766
     38 H                     0.156030
     39 H                     0.153081
     40 H                     0.136184
     41 H                     0.160827
     42 H                     0.143201
     43 H                     0.151079
     44 H                     0.152634
     45 H                     0.139347
     46 H                     0.136518
     47 H                     0.157102
  ----------------------------------------
  Sum of atomic charges =     0.000000

                    Cartesian Multipole Moments
 -----------------------------------------------------------------
    Charge (ESU x 10^10)
                 0.0000
    Dipole Moment (Debye)
         X       1.4552      Y      -2.8763      Z      -0.7774
       Tot       3.3159
    Quadrupole Moments (Debye-Ang)
        XX    -174.3862     XY     -12.1571     YY    -175.5170
        XZ      -3.7359     YZ      -4.0967     ZZ    -163.3733

 Total job time:  210.35s(wall), 209.40s(cpu)
        *  Thank you very much for using Q-Chem.  Have a nice day.  *
