 Q-Chem 5.2, Q-Chem, Inc., Pleasanton, CA (2019)
 Q-Chem 5.2.1 for Intel X86 EM64T Linux

User input:
--------------------------------------------------------------
$molecule
0 1
C         2.66744610410000   -2.82599672990000    0.02498594020000
C         2.82587986020000   -1.50868505150000   -0.00674169860000
C         1.76939164020000   -0.50160021580000   -0.00488969180000
C         0.41441937070000   -0.83376181770000   -0.00278990810000
C        -0.55831556950000    0.15799178270000    0.00003488910000
C        -1.98562374770000   -0.12859797310000    0.00225808430000
C        -2.59438062930000   -1.30489189120000    0.00012241880000
F        -2.04797958780000   -2.51484290060000   -0.00447354530000
F        -3.92127693250000   -1.43458033700000    0.00257865960000
C        -0.17629445320000    1.50385089970000    0.00072846410000
C         1.16727938370000    1.84750829490000   -0.00266481320000
O         1.64548522940000    3.12169878130000   -0.00331956000000
C         0.72734161710000    4.18755336430000   -0.00083442870000
C         2.13113397400000    0.84060419230000   -0.00602322920000
H         3.51539182070000   -3.48923624080000    0.02167647330000
H         1.70150981250000   -3.29960169850000    0.05633380920000
H         3.82901103580000   -1.10153480230000   -0.03453668670000
H         0.12610499990000   -1.86954561650000   -0.00499579410000
H        -2.64973780460000    0.72402037150000    0.00604074440000
H        -0.94365949540000    2.26166015650000    0.00327879540000
H         1.32963298720000    5.09456437460000   -0.00304665430000
H         0.09819101820000    4.17481766210000    0.89514934440000
H         0.09257610390000    4.17419987490000   -0.89282648600000
H         3.16980087200000    1.13296068710000   -0.00854551990000
$end

$rem
BASIS = 6-31G*
GUI = 2
METHOD = B3LYP
PRINT_ORBITALS false
MOLDEN_FORMAT false
--------------------------------------------------------------

             Standard Nuclear Orientation (Angstroms)
    I     Atom           X                Y                Z
 ----------------------------------------------------------------
    1      C       0.2798386730    -3.8646855565    -0.0194569448
    2      C      -0.7786727235    -3.0646354327     0.0103990303
    3      C      -0.7707320310    -1.6050761426     0.0066202631
    4      C       0.4086722442    -0.8599007362     0.0044386448
    5      C       0.3695361476     0.5287110822    -0.0002550834
    6      C       1.5663202813     1.3575954115    -0.0026576306
    7      C       2.8357463519     0.9797048167     0.0009525241
    8      F       3.3278333632    -0.2533253511     0.0075589478
    9      F       3.8498751530     1.8451606067    -0.0018716548
   10      C      -0.8646552396     1.1875302392    -0.0027681350
   11      C      -2.0444287594     0.4585411510     0.0006852600
   12      O      -3.2937584589     0.9983716052    -0.0003335110
   13      C      -3.4241335834     2.3990937308    -0.0047736198
   14      C      -1.9882216021    -0.9341885637     0.0059311598
   15      H       0.1690153709    -4.9354825414    -0.0148144862
   16      H       1.2911587911    -3.4978282116    -0.0505146617
   17      H      -1.7679482628    -3.5043935250     0.0380173177
   18      H       1.3545646075    -1.3710296195     0.0080472094
   19      H       1.4132169478     2.4274322825    -0.0079745280
   20      H      -0.8778443023     2.2659274860    -0.0067566792
   21      H      -4.4951755961     2.5947886173    -0.0036423776
   22      H      -2.9777034086     2.8420987056    -0.9010025454
   23      H      -2.9747342825     2.8480808795     0.8869697354
   24      H      -2.9194773933    -1.4792242139     0.0084606559
 ----------------------------------------------------------------

    9    -700.0380886049      5.98e-06  Convergence criterion met
 Total energy in the final basis set =     -700.0380886049

                    Orbital Energies (a.u.)
 --------------------------------------------------------------

 Alpha MOs
 -- Occupied --
-24.7444 -24.7337 -19.1795 -10.3565 -10.2473 -10.2421 -10.2070 -10.2028
-10.1955 -10.1885 -10.1875 -10.1812 -10.1787 -10.1785  -1.2852  -1.2240
 -1.0702  -0.8681  -0.8139  -0.7862  -0.7497  -0.7283  -0.6991  -0.6476
 -0.6238  -0.6061  -0.5762  -0.5560  -0.5376  -0.5187  -0.5037  -0.4915
 -0.4807  -0.4735  -0.4629  -0.4406  -0.4385  -0.4354  -0.4292  -0.4113
 -0.3988  -0.3895  -0.3831  -0.3581  -0.3494  -0.3376  -0.3305  -0.3173
 -0.2601  -0.2207  -0.2135

          Ground-State Mulliken Net Atomic Charges

     Atom                 Charge (a.u.)
  ----------------------------------------
      1 C                    -0.352907
      2 C                    -0.113633
      3 C                     0.187235
      4 C                    -0.267727
      5 C                     0.205753
      6 C                    -0.301276
      7 C                     0.546032
      8 F                    -0.232594
      9 F                    -0.250076
     10 C                    -0.275452
     11 C                     0.389209
     12 O                    -0.508683
     13 C                    -0.213901
     14 C                    -0.256635
     15 H                     0.144470
     16 H                     0.147610
     17 H                     0.128374
     18 H                     0.132746
     19 H                     0.156679
     20 H                     0.127753
     21 H                     0.170515
     22 H                     0.151011
     23 H                     0.151004
     24 H                     0.134494
  ----------------------------------------
  Sum of atomic charges =     0.000000

                    Cartesian Multipole Moments
 -----------------------------------------------------------------
    Charge (ESU x 10^10)
                 0.0000
    Dipole Moment (Debye)
         X      -1.0699      Y       1.5162      Z      -0.0066
       Tot       1.8557
    Quadrupole Moments (Debye-Ang)
        XX     -79.5313     XY      -5.3519     YY     -68.5945
        XZ      -0.0647     YZ      -0.0346     ZZ     -82.2707

 Total job time:  34.35s(wall), 33.09s(cpu)
        *  Thank you very much for using Q-Chem.  Have a nice day.  *
