 Q-Chem 5.2, Q-Chem, Inc., Pleasanton, CA (2019)
 Q-Chem 5.2.1 for Intel X86 EM64T Linux

User input:
--------------------------------------------------------------
$molecule
0 1
C         3.77450572340000    1.98466144580000   -0.04424242200000
C         2.47081868430000    1.74606402510000    0.02831269090000
C         1.82100039370000    0.43964764890000    0.01821595240000
C         2.53120043620000   -0.76211154050000    0.01572896880000
C         1.86125330060000   -1.97067857120000    0.00526073740000
C         0.47984309830000   -2.00702149530000   -0.00299592280000
C        -0.25770511410000   -0.82086154610000    0.00114324440000
C        -1.70959801710000   -0.91980849300000   -0.00636242920000
C        -2.60571113370000    0.05536614330000   -0.00604615530000
F        -2.39346415250000    1.36624772080000    0.00151742960000
F        -3.91999948920000   -0.16555499120000   -0.01382006970000
C         0.42815580780000    0.39124377580000    0.01332147340000
H         4.15913843770000    2.98994702540000   -0.03155568600000
H         4.50998549780000    1.20238689890000   -0.12192585650000
H         1.78826997300000    2.58430034430000    0.09672573500000
H         3.60954145590000   -0.75336313070000    0.02607816980000
H         2.42073377180000   -2.89466071830000    0.00413574940000
H        -0.03515726890000   -2.95632002360000   -0.01123427820000
H        -2.12253305880000   -1.91852606790000   -0.01361360490000
H        -0.11843192650000    1.32083733740000    0.01711169180000
$end

$rem
BASIS = 6-31G*
GUI = 2
METHOD = B3LYP
PRINT_ORBITALS false
MOLDEN_FORMAT false
--------------------------------------------------------------

             Standard Nuclear Orientation (Angstroms)
    I     Atom           X                Y                Z
 ----------------------------------------------------------------
    1      C       3.8566951287     1.5720793892    -0.0438956372
    2      C       2.5345138028     1.4808815988     0.0289903979
    3      C       1.7425071369     0.2554450157     0.0180302541
    4      C       2.3136875362    -1.0182715106     0.0142096844
    5      C       1.5126340410    -2.1442200031     0.0029710864
    6      C       0.1358381229    -2.0256596714    -0.0047474110
    7      C      -0.4642645187    -0.7643838029     0.0007231097
    8      C      -1.9181090985    -0.7001430407    -0.0062695530
    9      C      -2.6994035043     0.3692311215    -0.0047392535
   10      F      -2.3417176641     1.6480990523     0.0038720397
   11      F      -4.0301655142     0.2968582627    -0.0121625295
   12      C       0.3529993958     0.3632974213     0.0136682066
   13      H       4.3514687530     2.5279674109    -0.0304969278
   14      H       4.4999398052     0.7124475370    -0.1225597707
   15      H       1.9501301553     2.3902054012     0.0984107821
   16      H       3.3862309656    -1.1303221125     0.0241217968
   17      H       1.9651439044    -3.1250323436     0.0008152187
   18      H      -0.4822135316    -2.9113203334    -0.0135954987
   19      H      -2.4402700147    -1.6463404644    -0.0142153460
   20      H      -0.0860696889     1.3482399613     0.0184888466
 ----------------------------------------------------------------

    9    -585.5158937975      6.04e-06  Convergence criterion met
 Total energy in the final basis set =     -585.5158937975

                    Orbital Energies (a.u.)
 --------------------------------------------------------------

 Alpha MOs
 -- Occupied --
-24.7451 -24.7342 -10.3572 -10.2066 -10.2034 -10.1968 -10.1908 -10.1908
-10.1901 -10.1876 -10.1874 -10.1809  -1.2858  -1.2247  -0.8713  -0.8150
 -0.7862  -0.7419  -0.7282  -0.6470  -0.6258  -0.6123  -0.5785  -0.5575
 -0.5223  -0.5193  -0.5070  -0.4809  -0.4515  -0.4413  -0.4407  -0.4342
 -0.4326  -0.4127  -0.4029  -0.3850  -0.3720  -0.3519  -0.3398  -0.3190
 -0.2858  -0.2341  -0.2183

          Ground-State Mulliken Net Atomic Charges

     Atom                 Charge (a.u.)
  ----------------------------------------
      1 C                    -0.354344
      2 C                    -0.109213
      3 C                     0.180601
      4 C                    -0.182270
      5 C                    -0.130536
      6 C                    -0.191551
      7 C                     0.200193
      8 C                    -0.300610
      9 C                     0.545999
     10 F                    -0.234204
     11 F                    -0.249016
     12 C                    -0.276252
     13 H                     0.145445
     14 H                     0.143337
     15 H                     0.129225
     16 H                     0.126924
     17 H                     0.131083
     18 H                     0.127855
     19 H                     0.159639
     20 H                     0.137696
  ----------------------------------------
  Sum of atomic charges =     0.000000

                    Cartesian Multipole Moments
 -----------------------------------------------------------------
    Charge (ESU x 10^10)
                -0.0000
    Dipole Moment (Debye)
         X       0.7076      Y      -0.8744      Z      -0.0001
       Tot       1.1249
    Quadrupole Moments (Debye-Ang)
        XX     -65.4388     XY       1.6953     YY     -61.3972
        XZ      -0.1135     YZ       0.1524     ZZ     -70.8598

 Total job time:  22.99s(wall), 22.91s(cpu)
        *  Thank you very much for using Q-Chem.  Have a nice day.  *
