 Q-Chem 5.2, Q-Chem, Inc., Pleasanton, CA (2019)
 Q-Chem 5.2.1 for Intel X86 EM64T Linux

User input:
--------------------------------------------------------------
$molecule
0 1
C         3.00858500690000    0.98888064590000   -0.00545844340000
C         1.68562605680000    1.11386969700000    0.00460038940000
C         0.75173524980000    0.01317763080000    0.00246873760000
C         1.04517091860000   -1.38061585970000    0.00082130180000
C        -0.15118670190000   -2.02164442660000   -0.00057784790000
O        -1.16863746730000   -1.14685237250000   -0.00021482810000
C        -0.63412147560000    0.09739645980000    0.00176060140000
C        -1.50277320850000    1.24348267620000    0.00108344010000
C        -2.83212996520000    1.17407324220000   -0.00340455620000
H         3.65463997180000    1.84953835280000   -0.00309890340000
H         3.49376480740000    0.02824449730000   -0.01697724310000
H         1.24332641530000    2.10121102060000    0.01519470200000
H         2.01305947960000   -1.83688784530000    0.00125889800000
H        -0.40384705120000   -3.06391414510000   -0.00174334380000
H        -1.00139140440000    2.20069399450000    0.00411789010000
H        -3.34196591790000    0.22605186980000   -0.00678148280000
H        -3.44352959050000    2.05890216010000   -0.00397625440000
$end

$rem
BASIS = 6-31G*
GUI = 2
METHOD = B3LYP
PRINT_ORBITALS false
MOLDEN_FORMAT false
--------------------------------------------------------------

             Standard Nuclear Orientation (Angstroms)
    I     Atom           X                Y                Z
 ----------------------------------------------------------------
    1      C       2.9771983282     1.0049266758    -0.0053816062
    2      C       1.6525557203     1.1105955499     0.0046122354
    3      C       0.7348287195    -0.0036094015     0.0025907664
    4      C       1.0485751783    -1.3929720418     0.0011370593
    5      C      -0.1382993542    -2.0513929823    -0.0002218830
    6      O      -1.1684090823    -1.1915434413    -0.0000110556
    7      C      -0.6521095200     0.0603742122     0.0018206808
    8      C      -1.5373954772     1.1936605582     0.0009611810
    9      C      -2.8655974633     1.1048563785    -0.0035665242
   10      H       3.6106233615     1.8749219899    -0.0031113121
   11      H       3.4763470818     0.0514723951    -0.0167564926
   12      H       1.1958928407     2.0913778629     0.0150607041
   13      H       2.0230197805    -1.8350693342     0.0016700918
   14      H      -0.3757211475    -3.0972393339    -0.0012598470
   15      H      -1.0500373916     2.1580878272     0.0038883982
   16      H      -3.3615429082     0.1494946461    -0.0068377347
   17      H      -3.4898457482     1.9806677834    -0.0042768203
 ----------------------------------------------------------------

    9    -384.8270475533      4.18e-06  Convergence criterion met
 Total energy in the final basis set =     -384.8270475533

                    Orbital Energies (a.u.)
 --------------------------------------------------------------

 Alpha MOs
 -- Occupied --
-19.2166 -10.2399 -10.2379 -10.1960 -10.1931 -10.1919 -10.1833 -10.1794
-10.1785  -1.1215  -0.8269  -0.8005  -0.7570  -0.7216  -0.6295  -0.6142
 -0.5686  -0.5385  -0.5162  -0.4641  -0.4594  -0.4573  -0.4318  -0.4208
 -0.4013  -0.3700  -0.3621  -0.3517  -0.3253  -0.2991  -0.2478  -0.1993

          Ground-State Mulliken Net Atomic Charges

     Atom                 Charge (a.u.)
  ----------------------------------------
      1 C                    -0.352719
      2 C                    -0.099408
      3 C                     0.079440
      4 C                    -0.218765
      5 C                     0.081053
      6 O                    -0.439878
      7 C                     0.256998
      8 C                    -0.103850
      9 C                    -0.352731
     10 H                     0.142726
     11 H                     0.139244
     12 H                     0.128709
     13 H                     0.141236
     14 H                     0.156269
     15 H                     0.140954
     16 H                     0.157235
     17 H                     0.143487
  ----------------------------------------
  Sum of atomic charges =     0.000000

                    Cartesian Multipole Moments
 -----------------------------------------------------------------
    Charge (ESU x 10^10)
                 0.0000
    Dipole Moment (Debye)
         X       0.4682      Y      -0.1896      Z       0.0004
       Tot       0.5051
    Quadrupole Moments (Debye-Ang)
        XX     -49.4103     XY      -1.3878     YY     -44.9715
        XZ      -0.0054     YZ       0.0294     ZZ     -56.5023

 Total job time:  14.48s(wall), 14.41s(cpu)
        *  Thank you very much for using Q-Chem.  Have a nice day.  *
