 Q-Chem 5.2, Q-Chem, Inc., Pleasanton, CA (2019)
 Q-Chem 5.2.1 for Intel X86 EM64T Linux

User input:
--------------------------------------------------------------
$molecule
0 1
C        -3.51337421060000    5.10846960360000    0.60028820770000
C        -2.23548005710000    4.75064134740000    0.65985276500000
C        -1.71610624180000    3.39115951460000    0.69118050570000
C        -2.52784509220000    2.29733520090000    0.98226524120000
C        -2.03527940560000    1.00358452840000    1.02723415360000
O        -2.77887992260000   -0.10198968370000    1.33130059550000
C        -4.18559653860000   -0.00779463660000    1.37793143190000
C        -4.83810054550000    0.19477109330000    0.00575612950000
C        -4.86558502410000   -1.07441157520000   -0.84627321410000
C        -3.47253870990000   -1.57527514340000   -1.22069222560000
C        -3.54179329860000   -2.80030989800000   -2.12844939670000
C        -2.16604863970000   -3.30894411440000   -2.56207912000000
C        -1.26985986410000   -3.78975381800000   -1.41922291530000
C        -1.86039115470000   -4.96936865150000   -0.64876738660000
C        -0.87209576630000   -5.60137062130000    0.33236868120000
C        -0.53794008530000   -4.69360817950000    1.51025943460000
C        -0.67253501790000    0.78105404790000    0.75420285070000
C        -0.13517676830000   -0.57227053230000    0.80621569500000
C         0.96099605140000   -0.99697848770000    0.18851941170000
C         0.14101030650000    1.87424447030000    0.46949929680000
C        -0.34657622910000    3.17018617920000    0.44246994190000
O         0.41376687410000    4.28137057600000    0.20368226500000
C         1.79362655970000    4.14092637940000   -0.05478429210000
C         2.08357375980000    3.72007511810000   -1.50055796140000
C         3.52086222610000    3.23160728480000   -1.69422635060000
C         3.71032222530000    1.79372363690000   -1.21441260970000
C         5.13770619990000    1.28589854620000   -1.40607750960000
C         5.26074688090000   -0.22028677910000   -1.16704514500000
C         4.95817282930000   -0.63972564110000    0.27031241000000
C         5.08079228030000   -2.14987165000000    0.45824056790000
C         4.71435136580000   -2.58152650260000    1.87622700920000
C         4.80005453460000   -4.09280300820000    2.05021687950000
H        -3.80154739300000    6.14539798380000    0.58010541880000
H        -4.32121479090000    4.39726456560000    0.55792596360000
H        -1.47111368380000    5.51504190030000    0.66585565640000
H        -3.56476084510000    2.48967927090000    1.20150358530000
H        -4.49291833450000    0.78905317470000    2.06797152000000
H        -4.50603363460000   -0.96347639240000    1.80331662030000
H        -4.29901328510000    0.97691581530000   -0.53286996150000
H        -5.86255150920000    0.53787820010000    0.16695801630000
H        -5.42951756840000   -0.86508039770000   -1.75931367360000
H        -5.39888883880000   -1.85980936730000   -0.30422930610000
H        -2.92729590720000   -1.82192073610000   -0.31135393060000
H        -2.92509954070000   -0.77755607730000   -1.72938974250000
H        -4.11078123750000   -2.54351211180000   -3.02656995850000
H        -4.08538254700000   -3.59893569870000   -1.62041521780000
H        -1.64796056430000   -2.50572537660000   -3.09248278190000
H        -2.30834563130000   -4.13169556580000   -3.26822743840000
H        -1.07421321320000   -2.95929049460000   -0.74190799350000
H        -0.31148948320000   -4.09626791450000   -1.84757479820000
H        -2.17826411120000   -5.73184575380000   -1.36517161750000
H        -2.74271457980000   -4.64469021590000   -0.09478521760000
H         0.04715516190000   -5.86228200230000   -0.19784307390000
H        -1.30494505390000   -6.52926703610000    0.71513598930000
H        -0.03456745670000   -3.79138825500000    1.17548139450000
H         0.11607305780000   -5.20742086350000    2.21177841460000
H        -1.44527514230000   -4.40499369520000    2.03690582140000
H        -0.72212621190000   -1.26263910290000    1.39694827400000
H         1.55254934220000   -0.35898080680000   -0.44551366280000
H         1.30572769860000   -2.01300664650000    0.27960401980000
H         1.18356782750000    1.67896939110000    0.28846565540000
H         2.24932182660000    3.44554012630000    0.65941097810000
H         2.21157276670000    5.13478676580000    0.13196679750000
H         1.88804443890000    4.57421869450000   -2.15114592070000
H         1.38769328840000    2.92815282610000   -1.78669548920000
H         4.20665091720000    3.89411259260000   -1.16123067870000
H         3.77165580890000    3.28195383910000   -2.75592353970000
H         3.02880700470000    1.14752208950000   -1.77424618610000
H         3.45257648280000    1.72754679530000   -0.15671622560000
H         5.80897326470000    1.82049862460000   -0.73027542820000
H         5.45657852160000    1.50322295650000   -2.42862036480000
H         6.27647515320000   -0.53483685340000   -1.41907923730000
H         4.57909981540000   -0.74342556710000   -1.84263314930000
H         3.94384718340000   -0.34151921290000    0.53948709690000
H         5.64626395750000   -0.13049895030000    0.94939691450000
H         6.10302705480000   -2.46495786810000    0.23532244850000
H         4.41910317880000   -2.65323152340000   -0.25109390900000
H         3.69865921950000   -2.24783234960000    2.10216258070000
H         5.38690933010000   -2.09519378710000    2.58664301250000
H         4.11788754100000   -4.59443014720000    1.36701806320000
H         4.53789708080000   -4.37736417780000    3.06663907090000
H         5.80888374160000   -4.44446174270000    1.84452734650000
$end

$rem
BASIS = 6-31G*
GUI = 2
METHOD = B3LYP
PRINT_ORBITALS false
MOLDEN_FORMAT false
--------------------------------------------------------------

             Standard Nuclear Orientation (Angstroms)
    I     Atom           X                Y                Z
 ----------------------------------------------------------------
    1      C       3.4766307639    -5.2325907701     0.6752460581
    2      C       2.2038571378    -4.8556261172     0.7257179533
    3      C       1.7043517890    -3.4884787338     0.7437146165
    4      C       2.5306607508    -2.4043603544     1.0300758443
    5      C       2.0569303291    -1.1032182397     1.0623658770
    6      O       2.8152195788    -0.0062500564     1.3612817296
    7      C       4.2201632614    -0.1206539229     1.4155383738
    8      C       4.8761669614    -0.3437319812     0.0482217536
    9      C       4.9263464915     0.9180491176    -0.8137089387
   10      C       3.5426059671     1.4362400391    -1.1989001555
   11      C       3.6341686252     2.6528215982    -2.1160015781
   12      C       2.2681244415     3.1780546597    -2.5603779825
   13      C       1.3736442134     3.6810694386    -1.4257706271
   14      C       1.9777427310     4.8580434912    -0.6618222370
   15      C       0.9941583234     5.5122830483     0.3094215857
   16      C       0.6410937951     4.6189710026     1.4928312041
   17      C       0.6989183667    -0.8629534499     0.7809151457
   18      C       0.1812415892     0.4984664747     0.8195569184
   19      C      -0.9056172797     0.9342179569     0.1931554167
   20      C      -0.1292180134    -1.9463604823     0.5009209559
   21      C       0.3394160421    -3.2494767826     0.4865627371
   22      O      -0.4360078016    -4.3512865397     0.2528854497
   23      C      -1.8124075203    -4.1927293996    -0.0134334064
   24      C      -2.0892400899    -3.7792684476    -1.4639024462
   25      C      -3.5182623822    -3.2713764747    -1.6684689058
   26      C      -3.6888834740    -1.8270772031    -1.2010143528
   27      C      -5.1077278699    -1.2999596343    -1.4036825951
   28      C      -5.2097854191     0.2097313704    -1.1772161704
   29      C      -4.9079525091     0.6361912807     0.2582299609
   30      C      -5.0092867606     2.1494270439     0.4335650262
   31      C      -4.6433227954     2.5870110776     1.8498563073
   32      C      -4.7076620249     4.1007250916     2.0114252763
   33      H       3.7496446553    -6.2737554331     0.6647031302
   34      H       4.2950172822    -4.5336513250     0.6311923675
   35      H       1.4283323618    -5.6086813032     0.7340486873
   36      H       3.5635828266    -2.6101033124     1.2559027516
   37      H       4.5124569867    -0.9163648299     2.1133757292
   38      H       4.5525600095     0.8336095216     1.8348876194
   39      H       4.3282341168    -1.1221881169    -0.4868101604
   40      H       5.8946897210    -0.7004992052     0.2171502830
   41      H       5.4914980004     0.6931797316    -1.7222901780
   42      H       5.4685280149     1.6998699116    -0.2753134609
   43      H       2.9967073947     1.6981153692    -0.2942256520
   44      H       2.9859507065     0.6425736528    -1.7039220402
   45      H       4.2036069234     2.3805376664    -3.0092621259
   46      H       4.1869909007     3.4474456469    -1.6116690288
   47      H       1.7408396747     2.3782858392    -3.0869178648
   48      H       2.4258530830     3.9929538806    -3.2723293625
   49      H       1.1625967188     2.8590096185    -0.7428511193
   50      H       0.4219324151     3.9981421317    -1.8612239244
   51      H       2.3101906007     5.6100240778    -1.3826919764
   52      H       2.8525502200     4.5249283283    -0.1009718987
   53      H       0.0813781964     5.7823710171    -0.2273339004
   54      H       1.4387494658     6.4367779729     0.6869251286
   55      H       0.1261355182     3.7215657687     1.1627661336
   56      H      -0.0086481942     5.1479046261     2.1870430695
   57      H       1.5415698318     4.3213296957     2.0261830605
   58      H       0.7754349479     1.1848757343     1.4076555269
   59      H      -1.5034384505     0.2998929784    -0.4386799619
   60      H      -1.2358281911     1.9558810965     0.2744863284
   61      H      -1.1679205544    -1.7372984073     0.3132462354
   62      H      -2.2612504194    -3.4850495005     0.6929831235
   63      H      -2.2457846133    -5.1788369992     0.1791531104
   64      H      -1.9031662450    -4.6413652287    -2.1067269335
   65      H      -1.3804516589    -2.9999357942    -1.7529090330
   66      H      -4.2162390263    -3.9194812485    -1.1335926544
   67      H      -3.7646964526    -3.3265455491    -2.7309470187
   68      H      -2.9952909903    -1.1954262519    -1.7626188502
   69      H      -3.4352465954    -1.7562138658    -0.1426285043
   70      H      -5.7899888437    -1.8192461021    -0.7269502275
   71      H      -5.4248706027    -1.5207730731    -2.4260158382
   72      H      -6.2195720772     0.5370905114    -1.4367036541
   73      H      -4.5173149463     0.7174078874    -1.8535927396
   74      H      -3.8994102297     0.3253312954     0.5347207236
   75      H      -5.6066787507     0.1425472669     0.9379609478
   76      H      -6.0257102789     2.4776506540     0.2031561717
   77      H      -4.3369011031     2.6373493809    -0.2764971894
   78      H      -3.6337286817     2.2403020739     2.0833981635
   79      H      -5.3263312384     2.1162813154     2.5608117074
   80      H      -4.0149511254     4.5868244008     1.3276114948
   81      H      -4.4462111980     4.3895472631     3.0268271077
   82      H      -5.7102269680     4.4654578132     1.7980195704
 ----------------------------------------------------------------

    8   -1323.7240943625      7.91e-06  Convergence criterion met
 Total energy in the final basis set =    -1323.7240943625

                    Orbital Energies (a.u.)
 --------------------------------------------------------------

 Alpha MOs
 -- Occupied --
-19.1717 -19.1715 -10.2394 -10.2390 -10.2377 -10.2376 -10.1897 -10.1897
-10.1839 -10.1831 -10.1816 -10.1815 -10.1810 -10.1807 -10.1801 -10.1792
-10.1759 -10.1747 -10.1740 -10.1734 -10.1721 -10.1712 -10.1708 -10.1705
-10.1701 -10.1662 -10.1651 -10.1650 -10.1648 -10.1640 -10.1627 -10.1623
 -1.0634  -1.0619  -0.8601  -0.8194  -0.8114  -0.8065  -0.7984  -0.7933
 -0.7736  -0.7678  -0.7608  -0.7483  -0.7324  -0.7238  -0.7120  -0.6966
 -0.6818  -0.6616  -0.6475  -0.6385  -0.6235  -0.6172  -0.5923  -0.5841
 -0.5761  -0.5742  -0.5721  -0.5709  -0.5657  -0.5506  -0.5412  -0.5198
 -0.5154  -0.5049  -0.4802  -0.4780  -0.4730  -0.4657  -0.4628  -0.4573
 -0.4519  -0.4506  -0.4442  -0.4407  -0.4362  -0.4355  -0.4291  -0.4248
 -0.4220  -0.4193  -0.4173  -0.4135  -0.4063  -0.4036  -0.3967  -0.3922
 -0.3877  -0.3859  -0.3843  -0.3787  -0.3712  -0.3675  -0.3632  -0.3604
 -0.3587  -0.3533  -0.3504  -0.3496  -0.3483  -0.3390  -0.3370  -0.3344
 -0.3304  -0.3280  -0.3266  -0.3252  -0.3223  -0.3214  -0.3185  -0.3147
 -0.3114  -0.3058  -0.3052  -0.2993  -0.2968  -0.2958  -0.2949  -0.2852
 -0.2541  -0.2220  -0.1886

          Ground-State Mulliken Net Atomic Charges

     Atom                 Charge (a.u.)
  ----------------------------------------
      1 C                    -0.353884
      2 C                    -0.100744
      3 C                     0.103734
      4 C                    -0.271365
      5 C                     0.331329
      6 O                    -0.531600
      7 C                    -0.044785
      8 C                    -0.287095
      9 C                    -0.259944
     10 C                    -0.261867
     11 C                    -0.257608
     12 C                    -0.256661
     13 C                    -0.268441
     14 C                    -0.249111
     15 C                    -0.249664
     16 C                    -0.457132
     17 C                     0.095374
     18 C                    -0.104730
     19 C                    -0.372012
     20 C                    -0.268698
     21 C                     0.318805
     22 O                    -0.534095
     23 C                    -0.041074
     24 C                    -0.285664
     25 C                    -0.267233
     26 C                    -0.270715
     27 C                    -0.255048
     28 C                    -0.256294
     29 C                    -0.264167
     30 C                    -0.245798
     31 C                    -0.253227
     32 C                    -0.441272
     33 H                     0.141071
     34 H                     0.135205
     35 H                     0.150003
     36 H                     0.134020
     37 H                     0.140659
     38 H                     0.149558
     39 H                     0.156772
     40 H                     0.132572
     41 H                     0.129888
     42 H                     0.125164
     43 H                     0.161563
     44 H                     0.130483
     45 H                     0.122153
     46 H                     0.129442
     47 H                     0.125072
     48 H                     0.121567
     49 H                     0.154308
     50 H                     0.120593
     51 H                     0.123962
     52 H                     0.128893
     53 H                     0.127583
     54 H                     0.127319
     55 H                     0.158352
     56 H                     0.141602
     57 H                     0.141741
     58 H                     0.153958
     59 H                     0.145842
     60 H                     0.150277
     61 H                     0.138547
     62 H                     0.140999
     63 H                     0.151410
     64 H                     0.144757
     65 H                     0.153405
     66 H                     0.131743
     67 H                     0.137383
     68 H                     0.137183
     69 H                     0.145005
     70 H                     0.128632
     71 H                     0.127864
     72 H                     0.127855
     73 H                     0.127025
     74 H                     0.141167
     75 H                     0.126207
     76 H                     0.126649
     77 H                     0.126492
     78 H                     0.136269
     79 H                     0.129350
     80 H                     0.141026
     81 H                     0.141382
     82 H                     0.140711
  ----------------------------------------
  Sum of atomic charges =     0.000000

                    Cartesian Multipole Moments
 -----------------------------------------------------------------
    Charge (ESU x 10^10)
                -0.0000
    Dipole Moment (Debye)
         X      -0.3742      Y      -0.2119      Z      -0.3982
       Tot       0.5861
    Quadrupole Moments (Debye-Ang)
        XX    -186.0776     XY       5.0025     YY    -203.6024
        XZ       4.1486     YZ       2.4270     ZZ    -204.7995

 Total job time:  249.35s(wall), 248.55s(cpu)
        *  Thank you very much for using Q-Chem.  Have a nice day.  *
