 Q-Chem 5.2, Q-Chem, Inc., Pleasanton, CA (2019)
 Q-Chem 5.2.1 for Intel X86 EM64T Linux

User input:
--------------------------------------------------------------
$molecule
0 1
C         3.28681368300000   -0.71728158920000    0.00735180890000
C         1.98969847700000   -1.00925506820000   -0.00698373680000
C         0.90911919450000   -0.04546371380000   -0.00295679530000
C         1.09703991040000    1.36466829900000   -0.00288719000000
C        -0.06253133250000    2.06123304360000   -0.00076362630000
S        -1.44077428550000    1.03571100860000    0.00175571290000
C        -0.43460340800000   -0.38492255020000   -0.00060515040000
C        -1.02998967170000   -1.69223252190000    0.00170855290000
C        -2.33924831810000   -1.93197455210000    0.00024817880000
H         4.03212663480000   -1.49382289400000    0.00242801270000
H         3.65758325950000    0.29274350910000    0.02520299150000
H         1.69309749130000   -2.04911906680000   -0.02332408570000
H         2.06220640850000    1.83670976790000   -0.00565392120000
H        -0.20098466910000    3.12437600780000   -0.00074551600000
H        -0.33777154240000   -2.52337277370000    0.00518032180000
H        -3.05975056990000   -1.13080909920000   -0.00291873800000
H        -2.72887441610000   -2.93441513480000    0.00223306820000
$end

$rem
BASIS = 6-31G*
GUI = 2
METHOD = B3LYP
PRINT_ORBITALS false
MOLDEN_FORMAT false
--------------------------------------------------------------

             Standard Nuclear Orientation (Angstroms)
    I     Atom           X                Y                Z
 ----------------------------------------------------------------
    1      C       3.2207233167     0.8151197630    -0.0070238519
    2      C       1.9128025593     1.0540851436     0.0071436200
    3      C       0.8723258674     0.0471326935     0.0030700606
    4      C       1.1174560562    -1.3541872845     0.0031306465
    5      C      -0.0128183662    -2.0973476384     0.0009309277
    6      S      -1.4316389714    -1.1287424874    -0.0018223454
    7      C      -0.4840935152     0.3316468914     0.0005414403
    8      C      -1.1321688120     1.6136538218    -0.0019401982
    9      C      -2.4500966670     1.7999360515    -0.0006452182
   10      H       3.9338285555     1.6213383938    -0.0020765513
   11      H       3.6322764592    -0.1789873990    -0.0247552951
   12      H       1.5741429199     2.0810236192     0.0233702391
   13      H       2.1010261993    -1.7865742280     0.0060421544
   14      H      -0.1079077870    -3.1652428995     0.0009795537
   15      H      -0.4743345946     2.4722656616    -0.0053986424
   16      H      -3.1374109510     0.9701235597     0.0025028822
   17      H      -2.8801798934     2.7856964383    -0.0027513748
 ----------------------------------------------------------------

    9    -707.8020137118      3.40e-06  Convergence criterion met
 Total energy in the final basis set =     -707.8020137118

                    Orbital Energies (a.u.)
 --------------------------------------------------------------

 Alpha MOs
 -- Occupied --
-88.9038 -10.2183 -10.2135 -10.1986 -10.1985 -10.1942 -10.1894 -10.1820
-10.1812  -7.9658  -5.9298  -5.9261  -5.9229  -0.8902  -0.7939  -0.7934
 -0.7198  -0.7120  -0.6129  -0.6031  -0.5478  -0.5229  -0.5079  -0.4636
 -0.4344  -0.4248  -0.4161  -0.3952  -0.3767  -0.3715  -0.3614  -0.3311
 -0.3039  -0.3020  -0.2341  -0.2061

          Ground-State Mulliken Net Atomic Charges

     Atom                 Charge (a.u.)
  ----------------------------------------
      1 C                    -0.352417
      2 C                    -0.097795
      3 C                     0.139678
      4 C                    -0.125403
      5 C                    -0.348052
      6 S                     0.252399
      7 C                    -0.229210
      8 C                    -0.039981
      9 C                    -0.376138
     10 H                     0.144238
     11 H                     0.141707
     12 H                     0.130621
     13 H                     0.141432
     14 H                     0.172844
     15 H                     0.141614
     16 H                     0.157772
     17 H                     0.146690
  ----------------------------------------
  Sum of atomic charges =     0.000000

                    Cartesian Multipole Moments
 -----------------------------------------------------------------
    Charge (ESU x 10^10)
                 0.0000
    Dipole Moment (Debye)
         X       0.5737      Y      -0.0655      Z       0.0024
       Tot       0.5774
    Quadrupole Moments (Debye-Ang)
        XX     -56.2388     XY      -1.2055     YY     -52.2001
        XZ      -0.0130     YZ       0.0237     ZZ     -64.8604

 Total job time:  16.51s(wall), 16.44s(cpu)
        *  Thank you very much for using Q-Chem.  Have a nice day.  *
