 Q-Chem 5.2, Q-Chem, Inc., Pleasanton, CA (2019)
 Q-Chem 5.2.1 for Intel X86 EM64T Linux

User input:
--------------------------------------------------------------
$molecule
0 1
C         3.96100552720000    0.09487304170000    0.02230875860000
C         3.00980305160000   -0.83065002440000   -0.01073483790000
C         1.57278588920000   -0.59910852530000   -0.00352071670000
C         0.70168225590000   -1.68432510940000   -0.04057494710000
N        -0.61630740400000   -1.57565330180000   -0.03138072750000
C        -1.15628839600000   -0.37083615170000    0.01230763160000
O        -2.49653589630000   -0.26943607220000    0.01525827810000
C        -3.21337776340000   -1.48756181480000   -0.02169566150000
C        -0.39072802410000    0.81991155660000    0.05095339410000
C        -1.06854810650000    2.10786246600000    0.10574334570000
C        -0.51251554910000    3.28967573220000   -0.13095532950000
C         0.98636218150000    0.66974154800000    0.04708248560000
H         5.00311194210000   -0.17415221390000    0.01329375920000
H         3.74843503870000    1.14951542290000    0.06023271550000
H         3.29177654120000   -1.87597509570000   -0.04821159960000
H         1.07526634990000   -2.69997969880000   -0.07512272410000
H        -4.26661758640000   -1.21465478900000   -0.01023150900000
H        -2.96922715940000   -2.10547247790000    0.84512298220000
H        -2.97409628660000   -2.04814649730000   -0.92784322620000
H        -2.12148809950000    2.04618538010000    0.34366414080000
H         0.52372826940000    3.40247444040000   -0.40176122230000
H        -1.08567914130000    4.19867696430000   -0.07155624630000
H         1.61082996580000    1.54736501840000    0.09789919830000
$end

$rem
BASIS = 6-31G*
GUI = 2
METHOD = B3LYP
PRINT_ORBITALS false
MOLDEN_FORMAT false
--------------------------------------------------------------

             Standard Nuclear Orientation (Angstroms)
    I     Atom           X                Y                Z
 ----------------------------------------------------------------
    1      C       3.9514857355    -0.0062949648    -0.0251087238
    2      C       2.9827216372     0.9007888458     0.0090388562
    3      C       1.5504067006     0.6417326514     0.0022827584
    4      C       0.6586655744     1.7100139489     0.0405244059
    5      N      -0.6570013201     1.5760892644     0.0318272461
    6      C      -1.1737941455     0.3611690549    -0.0125187768
    7      O      -2.5118514312     0.2340832619    -0.0149572112
    8      C      -3.2519084444     1.4382081166     0.0232151894
    9      C      -0.3855534743    -0.8146471248    -0.0523840312
   10      C      -1.0385705270    -2.1153214483    -0.1078329351
   11      C      -0.4598658762    -3.2864257159     0.1277446225
   12      C       0.9884047384    -0.6380944030    -0.0490052812
   13      H       4.9882444828     0.2826621903    -0.0163508180
   14      H       3.7591653881    -1.0647924190    -0.0637223840
   15      H       3.2446107164     1.9513022160     0.0471679827
   16      H       1.0127161547     2.7326215860     0.0756623669
   17      H      -4.2997252059     1.1451581598     0.0120101300
   18      H      -3.0200466171     2.0613239232    -0.8432514579
   19      H      -3.0230130663     2.0026141293     0.9296736711
   20      H      -2.0926073509    -2.0736770121    -0.3452463115
   21      H       0.5784732459    -3.3795267271     0.3980124538
   22      H      -1.0155160907    -4.2062094350     0.0679220204
   23      H       1.6295675208    -1.5035413215    -0.1007471926
 ----------------------------------------------------------------

    9    -517.6173391007      2.26e-06  Convergence criterion met
 Total energy in the final basis set =     -517.6173391007

                    Orbital Energies (a.u.)
 --------------------------------------------------------------

 Alpha MOs
 -- Occupied --
-19.1842 -14.3247 -10.2769 -10.2314 -10.2202 -10.2021 -10.2015 -10.1957
-10.1927 -10.1896 -10.1808 -10.1801  -1.0843  -0.9423  -0.8310  -0.8087
 -0.7470  -0.7451  -0.7031  -0.6495  -0.6273  -0.5744  -0.5566  -0.5387
 -0.5184  -0.4831  -0.4749  -0.4595  -0.4476  -0.4306  -0.4137  -0.4115
 -0.4048  -0.3941  -0.3689  -0.3560  -0.3424  -0.3369  -0.3166  -0.2945
 -0.2624  -0.2438  -0.2095

          Ground-State Mulliken Net Atomic Charges

     Atom                 Charge (a.u.)
  ----------------------------------------
      1 C                    -0.356732
      2 C                    -0.115868
      3 C                     0.148955
      4 C                    -0.024342
      5 N                    -0.506097
      6 C                     0.491874
      7 O                    -0.484007
      8 C                    -0.201685
      9 C                     0.102476
     10 C                    -0.108433
     11 C                    -0.347485
     12 C                    -0.216667
     13 H                     0.144950
     14 H                     0.140364
     15 H                     0.129217
     16 H                     0.139417
     17 H                     0.157725
     18 H                     0.163583
     19 H                     0.164127
     20 H                     0.153279
     21 H                     0.140073
     22 H                     0.146383
     23 H                     0.138895
  ----------------------------------------
  Sum of atomic charges =     0.000000

                    Cartesian Multipole Moments
 -----------------------------------------------------------------
    Charge (ESU x 10^10)
                 0.0000
    Dipole Moment (Debye)
         X       0.1007      Y      -0.0837      Z      -0.0288
       Tot       0.1341
    Quadrupole Moments (Debye-Ang)
        XX     -62.1241     XY      -1.7122     YY     -65.6164
        XZ       0.5181     YZ       0.0525     ZZ     -73.4235

 Total job time:  27.99s(wall), 27.89s(cpu)
        *  Thank you very much for using Q-Chem.  Have a nice day.  *
