 Q-Chem 5.2, Q-Chem, Inc., Pleasanton, CA (2019)
 Q-Chem 5.2.1 for Intel X86 EM64T Linux

User input:
--------------------------------------------------------------
$molecule
0 1
C         2.81756416030000    2.93407605720000   -0.00069622710000
C         2.74770128010000    1.60709441720000    0.00000398740000
C         1.52223113650000    0.84047751430000   -0.00011789950000
C         0.20755529950000    1.33915752850000   -0.00057706320000
C        -0.65253798250000    0.25599847610000   -0.00067550740000
C        -2.10405016480000    0.23308503780000   -0.00005488500000
O        -2.82576266730000    1.20046055110000    0.00089251790000
O        -2.57565216570000   -1.04097754930000   -0.00134693710000
C        -3.98814121090000   -1.16631121380000    0.00079278830000
N         0.10452948680000   -0.87970842600000   -0.00026929170000
C         1.42277840420000   -0.56224258170000    0.00035898330000
C         2.47121641650000   -1.54561884420000    0.00132404640000
C         2.30089275160000   -2.86697688000000    0.00007550500000
H         3.76370551100000    3.44690266210000   -0.00001166760000
H         1.93803935270000    3.55374522140000   -0.00108338250000
H         3.66308789490000    1.03005837480000    0.00117677650000
H        -0.09965599970000    2.36453910800000   -0.00082660700000
H        -4.19995077240000   -2.23190164460000   -0.03943724140000
H        -4.41578461250000   -0.65609116620000   -0.86472823480000
H        -4.40674484500000   -0.72596760620000    0.90823053990000
H        -0.28131465680000   -1.80891479780000    0.00059283880000
H         3.47471962060000   -1.14455865570000    0.00330166360000
H         1.32965821800000   -3.33299326140000   -0.00248359120000
H         3.14193442530000   -3.53723375050000    0.00105600350000
$end

$rem
BASIS = 6-31G*
GUI = 2
METHOD = B3LYP
PRINT_ORBITALS false
MOLDEN_FORMAT false
--------------------------------------------------------------

             Standard Nuclear Orientation (Angstroms)
    I     Atom           X                Y                Z
 ----------------------------------------------------------------
    1      C       3.2834810951    -2.3973780902     0.0004237746
    2      C       2.9754800235    -1.1047464276    -0.0001329232
    3      C       1.6318605850    -0.5716748291     0.0000646565
    4      C       0.4286580519    -1.2992447779     0.0004617185
    5      C      -0.6126532600    -0.3889345541     0.0006724176
    6      C      -2.0445036356    -0.6281355886     0.0000454390
    7      O      -2.5799469758    -1.7097938203    -0.0010112946
    8      O      -2.7381159326     0.5400020474     0.0014728204
    9      C      -4.1500514447     0.4085792135    -0.0006619136
   10      N      -0.0727882980     0.8646711379     0.0003940075
   11      C       1.2810974334     0.7901180505    -0.0002606742
   12      C       2.1350251997     1.9464306011    -0.0011126807
   13      C       1.7292242087     3.2154153881     0.0002781555
   14      H       4.3065867088    -2.7311885372    -0.0003106497
   15      H       2.5301134223    -3.1654867809     0.0007383548
   16      H       3.7718093067    -0.3721052625    -0.0012375433
   17      H       0.3113810534    -2.3632148504     0.0005981643
   18      H      -4.5505373422     1.4185040092     0.0396824139
   19      H      -4.4786693768    -0.1704837800     0.8648011541
   20      H      -4.4824020767    -0.0999315962    -0.9081499753
   21      H      -0.6198635248     1.7090697646    -0.0003696791
   22      H       3.1943984633     1.7328981809    -0.0031276895
   23      H       0.6898776645     3.4986578946     0.0028818859
   24      H       2.4356175121     4.0263432621    -0.0006245148
 ----------------------------------------------------------------

    9    -592.8555814439      5.34e-06  Convergence criterion met
 Total energy in the final basis set =     -592.8555814439

                    Orbital Energies (a.u.)
 --------------------------------------------------------------

 Alpha MOs
 -- Occupied --
-19.1930 -19.1302 -14.3902 -10.3139 -10.2405 -10.2281 -10.2231 -10.2046
-10.1912 -10.1899 -10.1893 -10.1835 -10.1746  -1.1055  -1.0145  -0.9993
 -0.8176  -0.8060  -0.7582  -0.7511  -0.7097  -0.6385  -0.6224  -0.5974
 -0.5721  -0.5473  -0.5289  -0.4860  -0.4841  -0.4755  -0.4685  -0.4513
 -0.4363  -0.4279  -0.4258  -0.4081  -0.3906  -0.3845  -0.3750  -0.3615
 -0.3501  -0.3113  -0.3040  -0.3013  -0.2751  -0.2339  -0.2026

          Ground-State Mulliken Net Atomic Charges

     Atom                 Charge (a.u.)
  ----------------------------------------
      1 C                    -0.354269
      2 C                    -0.102355
      3 C                     0.048133
      4 C                    -0.229944
      5 C                     0.291049
      6 C                     0.580511
      7 O                    -0.491771
      8 O                    -0.489381
      9 C                    -0.213684
     10 N                    -0.730699
     11 C                     0.301051
     12 C                    -0.073135
     13 C                    -0.368523
     14 H                     0.140474
     15 H                     0.142942
     16 H                     0.124477
     17 H                     0.153379
     18 H                     0.160634
     19 H                     0.171775
     20 H                     0.169826
     21 H                     0.343989
     22 H                     0.143399
     23 H                     0.129691
     24 H                     0.152429
  ----------------------------------------
  Sum of atomic charges =     0.000000

                    Cartesian Multipole Moments
 -----------------------------------------------------------------
    Charge (ESU x 10^10)
                -0.0000
    Dipole Moment (Debye)
         X      -0.0199      Y       3.1187      Z      -0.0001
       Tot       3.1188
    Quadrupole Moments (Debye-Ang)
        XX     -65.5622     XY      -6.3435     YY     -73.0593
        XZ      -0.0228     YZ      -0.0048     ZZ     -78.7152

 Total job time:  30.52s(wall), 30.42s(cpu)
        *  Thank you very much for using Q-Chem.  Have a nice day.  *
