 Q-Chem 5.2, Q-Chem, Inc., Pleasanton, CA (2019)
 Q-Chem 5.2.1 for Intel X86 EM64T Linux

User input:
--------------------------------------------------------------
$molecule
0 1
C        -4.30695480310000    0.76789900810000   -0.63345673860000
C        -3.33356159430000    1.40538666710000    0.00350077580000
C        -1.94170028780000    0.96587700240000    0.08745040890000
C        -0.94889383860000    1.94720932620000    0.03426552280000
C         0.39068719580000    1.61296519500000    0.03721627080000
C         0.74000770740000    0.27790113390000    0.11501664070000
S         2.47056226770000   -0.18334665250000    0.07910197530000
C         2.80626185160000   -0.35334809560000   -1.70158397340000
O         3.26197985940000    0.90700964440000    0.58111561570000
O         2.62776392950000   -1.47635011250000    0.68823449100000
C        -0.21453594020000   -0.70923762940000    0.20781460090000
C        -1.57198199720000   -0.38844548930000    0.19880852180000
C        -2.56548806500000   -1.44476703060000    0.38211891920000
C        -2.43957768010000   -2.68600346770000   -0.06733110060000
H        -5.30549893850000    1.16861134500000   -0.67710391530000
H        -4.13896961570000   -0.15961693430000   -1.15425295180000
H        -3.53572240200000    2.36532243730000    0.46292920590000
H        -1.24330282820000    2.98491313730000   -0.02667315790000
H         1.16748329950000    2.36007716190000    0.00343137710000
H         2.61411249600000    0.60179715990000   -2.17228477890000
H         2.15672501360000   -1.12556166790000   -2.09218252420000
H         3.84560622630000   -0.63392524910000   -1.81747014380000
H         0.11138529400000   -1.73041507260000    0.32816459990000
H        -3.45015412180000   -1.15812116250000    0.93619972790000
H        -1.59253569470000   -3.00052250070000   -0.65369367680000
H        -3.19237959290000   -3.43204836670000    0.12021412050000
$end

$rem
BASIS = 6-31G*
GUI = 2
METHOD = B3LYP
PRINT_ORBITALS false
MOLDEN_FORMAT false
--------------------------------------------------------------

             Standard Nuclear Orientation (Angstroms)
    I     Atom           X                Y                Z
 ----------------------------------------------------------------
    1      C       4.2754911049     0.6328991230     0.5919830408
    2      C       3.3262153234     1.2921622777    -0.0590525288
    3      C       1.9193103484     0.9019622579    -0.1355804246
    4      C       0.9628674944     1.9196591732    -0.1036984055
    5      C      -0.3879929305     1.6343947982    -0.1013441257
    6      C      -0.7856552760     0.3116103465    -0.1521350493
    7      S      -2.5318698610    -0.0855201788    -0.1087710239
    8      C      -2.8742715225    -0.2065620286     1.6746378249
    9      O      -3.2828588594     1.0223669323    -0.6339738676
   10      O      -2.7357899996    -1.3841914828    -0.6914219941
   11      C       0.1323551118    -0.7113096072    -0.2235470288
   12      C       1.5005764676    -0.4400111496    -0.2195504535
   13      C       2.4550420917    -1.5353314209    -0.3799907319
   14      C       2.2838399630    -2.7616648183     0.0946911274
   15      H       5.2879438462     0.9978205702     0.6285566261
   16      H       4.0736342033    -0.2769905133     1.1315089284
   17      H       3.5633801467     2.2344609033    -0.5378492543
   18      H       1.2948357177     2.9469949261    -0.0637268517
   19      H      -1.1370878928     2.4098165262    -0.0838005196
   20      H      -2.6476700675     0.7504295864     2.1258605102
   21      H      -2.2534405922    -0.9937109072     2.0817554147
   22      H      -3.9231895861    -0.4466899482     1.7950510746
   23      H      -0.2304782510    -1.7222076329    -0.3232930874
   24      H       3.3497863140    -1.2925165225    -0.9388101393
   25      H       1.4256667572    -3.0330342780     0.6864011773
   26      H       3.0090589956    -3.5383071572    -0.0766300720
 ----------------------------------------------------------------

    9    -974.9235860219      6.44e-06  Convergence criterion met
 Total energy in the final basis set =     -974.9235860219

                    Orbital Energies (a.u.)
 --------------------------------------------------------------

 Alpha MOs
 -- Occupied --
-89.0880 -19.1308 -19.1308 -10.2230 -10.2193 -10.2185 -10.2164 -10.2117
-10.2103 -10.2082 -10.2063 -10.2002 -10.1966 -10.1900  -8.1179  -6.0822
 -6.0815  -6.0811  -1.1105  -1.0010  -0.8927  -0.8241  -0.8047  -0.7765
 -0.7524  -0.7402  -0.6646  -0.6489  -0.6023  -0.5872  -0.5623  -0.5269
 -0.5073  -0.4885  -0.4767  -0.4719  -0.4631  -0.4565  -0.4509  -0.4364
 -0.4346  -0.4226  -0.4089  -0.3924  -0.3850  -0.3649  -0.3592  -0.3302
 -0.3143  -0.3116  -0.3070  -0.2944  -0.2856  -0.2600  -0.2385

          Ground-State Mulliken Net Atomic Charges

     Atom                 Charge (a.u.)
  ----------------------------------------
      1 C                    -0.337790
      2 C                    -0.138099
      3 C                     0.105604
      4 C                    -0.182912
      5 C                    -0.146133
      6 C                    -0.152108
      7 S                     1.074216
      8 C                    -0.625228
      9 O                    -0.521936
     10 O                    -0.521495
     11 C                    -0.212530
     12 C                     0.111053
     13 C                    -0.134022
     14 C                    -0.341107
     15 H                     0.151756
     16 H                     0.166969
     17 H                     0.142974
     18 H                     0.142599
     19 H                     0.175230
     20 H                     0.197791
     21 H                     0.197358
     22 H                     0.216940
     23 H                     0.180239
     24 H                     0.154775
     25 H                     0.146355
     26 H                     0.149503
  ----------------------------------------
  Sum of atomic charges =     0.000000

                    Cartesian Multipole Moments
 -----------------------------------------------------------------
    Charge (ESU x 10^10)
                 0.0000
    Dipole Moment (Debye)
         X       4.2496      Y       0.7777      Z       3.4116
       Tot       5.5048
    Quadrupole Moments (Debye-Ang)
        XX     -91.3217     XY       0.5767     YY     -85.3226
        XZ     -11.7042     YZ      -2.1737     ZZ     -89.2398

 Total job time:  42.49s(wall), 42.36s(cpu)
        *  Thank you very much for using Q-Chem.  Have a nice day.  *
