 Q-Chem 5.2, Q-Chem, Inc., Pleasanton, CA (2019)
 Q-Chem 5.2.1 for Intel X86 EM64T Linux

User input:
--------------------------------------------------------------
$molecule
0 1
C         3.71405458270000    0.85573873680000   -1.14937859170000
N         2.98949337120000    1.21316415470000    0.05448293690000
C         1.65019232270000    0.84050029740000    0.13800162550000
C         0.63078266680000    1.75790284510000    0.29680537430000
C        -0.70117708300000    1.35604946590000    0.33999203730000
C        -1.06912756480000    0.03251046330000    0.21492209270000
C        -2.47201965670000   -0.35474239330000    0.25446439640000
C        -3.50579366220000    0.38483194670000   -0.11708968160000
F        -3.48853374680000    1.60663157200000   -0.64412983410000
F        -4.77364409860000   -0.02485553290000   -0.02253346040000
C         1.31836978940000   -0.55061891760000    0.12259145480000
C        -0.04434632040000   -0.95524671910000    0.10881881320000
C        -0.32469376800000   -2.33383675900000   -0.00462966920000
C         0.67286051390000   -3.26928232580000   -0.01148388840000
C         2.00804353340000   -2.87293088450000    0.12128247860000
C         2.31935272130000   -1.54280664650000    0.17836217850000
C         3.36760390910000    2.51617560260000    0.54765463090000
H         3.26988740790000   -0.01728368940000   -1.61904087580000
H         4.75656784430000    0.64101966810000   -0.90381225500000
H         3.69550708850000    1.68114760430000   -1.87400966110000
H         0.84685772710000    2.81245599920000    0.35922408130000
H        -1.45774225680000    2.11490390330000    0.46378115960000
H        -2.72546432340000   -1.33322070560000    0.63211341470000
H        -1.34789154060000   -2.66408633600000   -0.09004647840000
H         0.43150233160000   -4.31873738550000   -0.09631091650000
H         2.78676235730000   -3.61908064620000    0.17755783200000
H         3.34550583200000   -1.23678854720000    0.30510790200000
H         4.44922004250000    2.52205892540000    0.69080402210000
H         2.89042324060000    2.69582113440000    1.50894491310000
H         3.11164115620000    3.33208524240000   -0.14245946100000
$end

$rem
BASIS = 6-31G*
GUI = 2
METHOD = B3LYP
PRINT_ORBITALS false
MOLDEN_FORMAT false
--------------------------------------------------------------

             Standard Nuclear Orientation (Angstroms)
    I     Atom           X                Y                Z
 ----------------------------------------------------------------
    1      C      -3.6018116871     0.7708792765     1.1473284607
    2      N      -2.8877443817     1.1364576871    -0.0603489663
    3      C      -1.5396232752     0.7967643183    -0.1425616046
    4      C      -0.5436807736     1.7380657180    -0.3101692417
    5      C       0.7978763752     1.3693395239    -0.3518035032
    6      C       1.1989915906     0.0564945409    -0.2164145292
    7      C       2.6110971565    -0.2958307744    -0.2546157484
    8      C       3.6264322501     0.4724075435     0.1095488660
    9      F       3.5791578458     1.6976679742     0.6266229021
   10      F       4.9040402643     0.0938244479     0.0166939212
   11      C      -1.1730521838    -0.5854399482    -0.1162302899
   12      C       0.1993833896    -0.9557031892    -0.1009244614
   13      C       0.5142889643    -2.3258681688     0.0234063695
   14      C      -0.4595192707    -3.2859037819     0.0391885446
   15      C      -1.8043532008    -2.9241994364    -0.0950751356
   16      C      -2.1489355161    -1.6027967917    -0.1626034251
   17      C      -3.2989047212     2.4255129912    -0.5636464232
   18      H      -3.1354088091    -0.0868751979     1.6235226584
   19      H      -4.6388888580     0.5281272937     0.9048755348
   20      H      -3.6031476885     1.6024011443     1.8651749577
   21      H      -0.7861639533     2.7863330379    -0.3809111323
   22      H       1.5350655579     2.1458550991    -0.4827627964
   23      H       2.8885522014    -1.2707185635    -0.6245958621
   24      H       1.5455286187    -2.6296909825     0.1101875277
   25      H      -0.1918640871    -4.3282583568     0.1322635797
   26      H      -2.5642040152    -3.6900441008    -0.1442491001
   27      H      -3.1825679520    -1.3236095301    -0.2905105101
   28      H      -4.3804848008     2.4031468942    -0.7054353889
   29      H      -2.8274232159     2.6091675474    -1.5269890976
   30      H      -3.0626999048     3.2531991750     0.1194537136
 ----------------------------------------------------------------

    9    -795.7175505111      6.72e-06  Convergence criterion met
 Total energy in the final basis set =     -795.7175505111

                    Orbital Energies (a.u.)
 --------------------------------------------------------------

 Alpha MOs
 -- Occupied --
-24.7342 -24.7258 -14.3435 -10.3469 -10.2200 -10.2109 -10.2106 -10.1947
-10.1941 -10.1936 -10.1903 -10.1849 -10.1838 -10.1833 -10.1826 -10.1824
-10.1783  -1.2748  -1.2147  -0.9491  -0.8719  -0.8273  -0.7970  -0.7572
 -0.7435  -0.7221  -0.7132  -0.6641  -0.6245  -0.6167  -0.6136  -0.5775
 -0.5639  -0.5233  -0.5189  -0.5091  -0.5062  -0.4915  -0.4690  -0.4623
 -0.4574  -0.4405  -0.4329  -0.4268  -0.4216  -0.4137  -0.4095  -0.4027
 -0.4003  -0.3920  -0.3809  -0.3766  -0.3754  -0.3379  -0.3343  -0.3264
 -0.3039  -0.2517  -0.2428  -0.2360  -0.1830

          Ground-State Mulliken Net Atomic Charges

     Atom                 Charge (a.u.)
  ----------------------------------------
      1 C                    -0.323423
      2 N                    -0.461033
      3 C                     0.269146
      4 C                    -0.196940
      5 C                    -0.215240
      6 C                     0.136328
      7 C                    -0.313012
      8 C                     0.544118
      9 F                    -0.239815
     10 F                    -0.253543
     11 C                     0.088416
     12 C                     0.058566
     13 C                    -0.196234
     14 C                    -0.131502
     15 C                    -0.130933
     16 C                    -0.199597
     17 C                    -0.308564
     18 H                     0.176943
     19 H                     0.152270
     20 H                     0.139241
     21 H                     0.126501
     22 H                     0.132424
     23 H                     0.163291
     24 H                     0.126657
     25 H                     0.126621
     26 H                     0.125787
     27 H                     0.147768
     28 H                     0.154676
     29 H                     0.166269
     30 H                     0.134813
  ----------------------------------------
  Sum of atomic charges =     0.000000

                    Cartesian Multipole Moments
 -----------------------------------------------------------------
    Charge (ESU x 10^10)
                 0.0000
    Dipole Moment (Debye)
         X      -2.3583      Y       0.1505      Z       0.1307
       Tot       2.3667
    Quadrupole Moments (Debye-Ang)
        XX     -93.7317     XY      -4.6288     YY     -88.4821
        XZ      -2.3967     YZ      -1.2754     ZZ     -99.4938

 Total job time:  61.11s(wall), 59.80s(cpu)
        *  Thank you very much for using Q-Chem.  Have a nice day.  *
