 Q-Chem 5.2, Q-Chem, Inc., Pleasanton, CA (2019)
 Q-Chem 5.2.1 for Intel X86 EM64T Linux

User input:
--------------------------------------------------------------
$molecule
0 1
C         0.97012661970000   -3.85194336360000   -0.15119087150000
C         1.50458292240000   -2.64493660460000   -0.00623320220000
C         0.79536659990000   -1.37304296850000   -0.01606599980000
C        -0.58745482290000   -1.26266689990000   -0.00472822110000
C        -1.24597335580000   -0.03463849700000   -0.02210825090000
C        -2.72073421730000    0.04149506660000    0.03142501250000
O        -3.36091517170000    1.03062342680000   -0.25204094120000
O        -3.38147936890000   -1.05404339460000    0.44136787010000
C        -0.48584181120000    1.16227679260000   -0.09320155300000
N        -1.09102748240000    2.36184818100000   -0.12144637100000
C         0.93037883080000    1.07853276910000   -0.08796967790000
C         1.73791141120000    2.29968558520000   -0.19106579610000
C         2.84329721690000    2.54240718950000    0.49727864530000
C         1.51883092250000   -0.17092416530000   -0.03598647670000
F         2.86519797090000   -0.25075807060000   -0.06031843310000
H         1.58402671990000   -4.73501498620000   -0.12863618280000
H        -0.08232922610000   -4.01876847230000   -0.30665527240000
H         2.57511783610000   -2.56054676970000    0.12403753930000
H        -1.15369592310000   -2.18303603940000   -0.01325720420000
H        -2.78965362020000   -1.76543123430000    0.71843538360000
H        -2.10015403790000    2.38066839620000   -0.18734935370000
H        -0.55207513330000    3.20714373770000   -0.11048294160000
H         1.38025066060000    3.03129390050000   -0.90706093390000
H         3.22978613150000    1.84977863150000    1.22477194630000
H         3.40335456470000    3.45094339940000    0.35704169050000
$end

$rem
BASIS = 6-31G*
GUI = 2
METHOD = B3LYP
PRINT_ORBITALS false
MOLDEN_FORMAT false
--------------------------------------------------------------

             Standard Nuclear Orientation (Angstroms)
    I     Atom           X                Y                Z
 ----------------------------------------------------------------
    1      C      -0.7524139984    -3.8924311898     0.1568181299
    2      C      -1.3505877696    -2.7154795971     0.0136585348
    3      C      -0.7098515283    -1.4077376861     0.0217863073
    4      C       0.6651249331    -1.2241226020     0.0065632726
    5      C       1.2575845972     0.0371244537     0.0223712658
    6      C       2.7260682403     0.1914286473    -0.0353152485
    7      O       3.3136507488     1.2131161608     0.2465729115
    8      O       3.4428618498    -0.8674610768    -0.4473847761
    9      C       0.4352031490     1.1920023896     0.0958977249
   10      N       0.9759465126     2.4220009478     0.1227145826
   11      C      -0.9745858235     1.0332105702     0.0946519497
   12      C      -1.8454969112     2.2097732867     0.2003209117
   13      C      -2.9641556123     2.3935435170    -0.4848366173
   14      C      -1.4960389444    -0.2457130339     0.0440376627
   15      F      -2.8361967120    -0.3968952989     0.0721589386
   16      H      -1.3186414929    -4.8068390965     0.1357909530
   17      H       0.3078494986    -4.0031752008     0.3092654491
   18      H      -2.4244580652    -2.6880163930    -0.1135636030
   19      H       1.2794382677    -2.1131418318     0.0132726806
   20      H       2.8888433267    -1.6092336287    -0.7229455491
   21      H       1.9828347749     2.4943486084     0.1857673527
   22      H       0.3928609656     3.2375009777     0.1134757773
   23      H      -1.5251402838     2.9592715793     0.9154746837
   24      H      -3.3154011206     1.6814409698    -1.2113977356
   25      H      -3.5712438313     3.2710618661    -0.3428009792
 ----------------------------------------------------------------

    9    -730.1975114466      6.33e-06  Convergence criterion met
 Total energy in the final basis set =     -730.1975114466

                    Orbital Energies (a.u.)
 --------------------------------------------------------------

 Alpha MOs
 -- Occupied --
-24.7200 -19.1969 -19.1369 -14.3537 -10.3244 -10.2854 -10.2582 -10.2165
-10.2096 -10.2075 -10.2042 -10.2035 -10.1958 -10.1912 -10.1825  -1.2319
 -1.1086  -1.0244  -0.9473  -0.8701  -0.8157  -0.7924  -0.7544  -0.7278
 -0.6637  -0.6475  -0.6330  -0.6069  -0.5631  -0.5608  -0.5549  -0.5363
 -0.5000  -0.4852  -0.4825  -0.4688  -0.4547  -0.4529  -0.4481  -0.4314
 -0.4263  -0.4078  -0.3990  -0.3891  -0.3850  -0.3641  -0.3497  -0.3448
 -0.3200  -0.3010  -0.2806  -0.2777  -0.2466  -0.2033

          Ground-State Mulliken Net Atomic Charges

     Atom                 Charge (a.u.)
  ----------------------------------------
      1 C                    -0.361632
      2 C                    -0.108076
      3 C                     0.108077
      4 C                    -0.305258
      5 C                     0.058283
      6 C                     0.576857
      7 O                    -0.495020
      8 O                    -0.572601
      9 C                     0.272256
     10 N                    -0.841334
     11 C                     0.047276
     12 C                    -0.148454
     13 C                    -0.317922
     14 C                     0.231411
     15 F                    -0.278413
     16 H                     0.147301
     17 H                     0.134049
     18 H                     0.143607
     19 H                     0.123105
     20 H                     0.420734
     21 H                     0.388941
     22 H                     0.335278
     23 H                     0.138890
     24 H                     0.156232
     25 H                     0.146416
  ----------------------------------------
  Sum of atomic charges =     0.000000

                    Cartesian Multipole Moments
 -----------------------------------------------------------------
    Charge (ESU x 10^10)
                 0.0000
    Dipole Moment (Debye)
         X      -2.1428      Y       0.0439      Z      -0.6891
       Tot       2.2513
    Quadrupole Moments (Debye-Ang)
        XX     -98.6371     XY      -7.5826     YY     -71.0631
        XZ      -0.3119     YZ       1.7666     ZZ     -87.0455

 Total job time:  42.69s(wall), 42.49s(cpu)
        *  Thank you very much for using Q-Chem.  Have a nice day.  *
