 Q-Chem 5.2, Q-Chem, Inc., Pleasanton, CA (2019)
 Q-Chem 5.2.1 for Intel X86 EM64T Linux

User input:
--------------------------------------------------------------
$molecule
0 1
C         7.99329000050000   -0.66413748830000   -0.46602784790000
C         7.14121102130000    0.10681089810000    0.19979397910000
C         5.68695041460000    0.06622890760000    0.12933968100000
C         4.98421428910000   -0.83595106060000   -0.67151020310000
C         3.60593886650000   -0.83570964190000   -0.69940790070000
C         2.87144459190000    0.07005056840000    0.06531330790000
C         1.40417719820000    0.06986539910000    0.03097450550000
C         0.68971078820000   -1.12668897750000    0.01055001770000
C        -0.68977314600000   -1.12663103070000   -0.01348557080000
C        -1.40420394060000    0.06997255470000   -0.03273881450000
C        -2.87148609000000    0.07008070100000   -0.06634494210000
C        -3.60531683790000   -0.83654427440000    0.69800254060000
C        -4.98359303760000   -0.83727147180000    0.67075140670000
C        -5.68702011100000    0.06528738980000   -0.12905982840000
C        -7.14132793060000    0.10507310720000   -0.19903298610000
C        -7.99280729500000   -0.66154593760000    0.47247205410000
C        -4.94779888070000    0.96883312720000   -0.89569467760000
C        -3.56934011790000    0.97564033070000   -0.86347790600000
C        -0.68955679610000    1.26653279440000   -0.01980163260000
C         0.68958094660000    1.26646983670000    0.01873482640000
C         3.56861244160000    0.97513095490000    0.86360088050000
C         4.94704999820000    0.96891104720000    0.89633471150000
H         9.05748951580000   -0.55594558130000   -0.34451460270000
H         7.67509421090000   -1.42834898310000   -1.15406978870000
H         7.53526637770000    0.85695922140000    0.87546090330000
H         5.52163597100000   -1.54582016200000   -1.28126584310000
H         3.08527421910000   -1.53280246790000   -1.34028355650000
H         1.22377233320000   -2.06566184090000    0.03475211810000
H        -1.22389270900000   -2.06554869350000   -0.03850913700000
H        -3.08409601850000   -1.53403303190000    1.33799207180000
H        -5.52046299330000   -1.54812131850000    1.27984943280000
H        -7.53596462660000    0.85103689150000   -0.87901174270000
H        -7.67399365940000   -1.42094537960000    1.16555308100000
H        -9.05711054530000   -0.55430465360000    0.35103141900000
H        -5.46879617260000    1.67504712410000   -1.52753352170000
H        -3.02231792750000    1.67460401160000   -1.47971899020000
H        -1.22420692120000    2.20548605150000   -0.01917886990000
H         1.22430152550000    2.20538310810000    0.01876211100000
H         3.02103517070000    1.67333389520000    1.48020669280000
H         5.46749214240000    1.67480008180000    1.52899161070000
$end

$rem
BASIS = 6-31G*
GUI = 2
METHOD = B3LYP
PRINT_ORBITALS false
MOLDEN_FORMAT false
--------------------------------------------------------------

             Standard Nuclear Orientation (Angstroms)
    I     Atom           X                Y                Z
 ----------------------------------------------------------------
    1      C       7.9938098248    -0.6593571507    -0.4570676128
    2      C       7.1409797506     0.1115892512     0.2077941898
    3      C       5.6867994348     0.0710013363     0.1357050188
    4      C       4.9849677179    -0.8311831068    -0.6659325337
    5      C       3.6067245304    -0.8309472212    -0.6953797881
    6      C       2.8713673602     0.0748116796     0.0685132482
    7      C       1.4041395012     0.0746206102     0.0325248417
    8      C       0.6897012555    -1.1219366471     0.0112996242
    9      C      -0.6897547843    -1.1218842300    -0.0142868818
   10      C      -1.4041682312     0.0747164772    -0.0343458581
   11      C      -2.8714116708     0.0748187250    -0.0696016074
   12      C      -3.6060977002    -0.8318075581     0.6939222678
   13      C      -4.9843423879    -0.8325402872     0.6651215778
   14      C      -5.6868733839     0.0700140989    -0.1354819056
   15      C      -7.1411017726     0.1097938928    -0.2070901589
   16      C      -7.9933325185    -0.6568271222     0.4634587670
   17      C      -4.9467942917     0.9735611606    -0.9012870790
   18      C      -3.5683726480     0.9803739069    -0.8675205620
   19      C      -0.6895408332     1.2712795826    -0.0206077386
   20      C       0.6895527121     1.2712221838     0.0194792396
   21      C       3.5676336741     0.9798965135     0.8675822244
   22      C       4.9460335820     0.9736821497     0.9018658040
   23      H       9.0578716226    -0.5511607613    -0.3343582092
   24      H       7.6763908249    -1.4235713559    -1.1454652512
   25      H       7.5342722382     0.8617405602     0.8839021368
   26      H       5.5230774169    -1.5410513556    -1.2750820778
   27      H       3.0867835059    -1.5280434626    -1.3368389454
   28      H       1.2237389802    -2.0609073384     0.0361041249
   29      H      -1.2238421490    -2.0608040669    -0.0399089564
   30      H      -3.0855939719    -1.5292928998     1.3344988646
   31      H      -5.5218939821    -1.5433909857     1.2736171221
   32      H      -7.5349766906     0.8557546800    -0.8875137414
   33      H      -7.6752952903    -1.4162238407     1.1568993931
   34      H      -9.0574989880    -0.5495903209     0.3408214029
   35      H      -5.4670836910     1.6797717597    -1.5337127609
   36      H      -3.0206607475     1.6793384649    -1.4831477208
   37      H      -1.2241950478     2.2102307175    -0.0205880535
   38      H       1.2242691953     2.2101375791     0.0201057241
   39      H       3.0193607373     1.6780985753     1.4835705433
   40      H       5.4657613088     1.6795745816     1.5351059412
 ----------------------------------------------------------------

    8    -849.1599557078      4.09e-06  Convergence criterion met
 Total energy in the final basis set =     -849.1599557078

                    Orbital Energies (a.u.)
 --------------------------------------------------------------

 Alpha MOs
 -- Occupied --
-10.1947 -10.1947 -10.1944 -10.1944 -10.1936 -10.1936 -10.1894 -10.1894
-10.1872 -10.1871 -10.1870 -10.1870 -10.1869 -10.1869 -10.1865 -10.1865
-10.1863 -10.1863 -10.1859 -10.1859 -10.1790 -10.1790  -0.8781  -0.8674
 -0.8519  -0.8087  -0.7910  -0.7624  -0.7546  -0.7494  -0.7442  -0.7309
 -0.7022  -0.6437  -0.6298  -0.6129  -0.6121  -0.5905  -0.5816  -0.5601
 -0.5590  -0.5330  -0.5102  -0.4888  -0.4787  -0.4715  -0.4631  -0.4491
 -0.4460  -0.4400  -0.4382  -0.4276  -0.4212  -0.4211  -0.4147  -0.4127
 -0.3947  -0.3858  -0.3753  -0.3729  -0.3621  -0.3569  -0.3521  -0.3443
 -0.3384  -0.3347  -0.3296  -0.3094  -0.2979  -0.2579  -0.2538  -0.2534
 -0.2534  -0.2241  -0.2031

          Ground-State Mulliken Net Atomic Charges

     Atom                 Charge (a.u.)
  ----------------------------------------
      1 C                    -0.353428
      2 C                    -0.114206
      3 C                     0.183447
      4 C                    -0.189711
      5 C                    -0.173422
      6 C                     0.088954
      7 C                     0.092705
      8 C                    -0.178578
      9 C                    -0.178594
     10 C                     0.092714
     11 C                     0.088954
     12 C                    -0.173423
     13 C                    -0.189703
     14 C                     0.183425
     15 C                    -0.114215
     16 C                    -0.353410
     17 C                    -0.204723
     18 C                    -0.171360
     19 C                    -0.178485
     20 C                    -0.178494
     21 C                    -0.171357
     22 C                    -0.204734
     23 H                     0.144190
     24 H                     0.142356
     25 H                     0.126320
     26 H                     0.127384
     27 H                     0.132537
     28 H                     0.132763
     29 H                     0.132772
     30 H                     0.132543
     31 H                     0.127386
     32 H                     0.126325
     33 H                     0.142356
     34 H                     0.144188
     35 H                     0.128150
     36 H                     0.132344
     37 H                     0.132761
     38 H                     0.132767
     39 H                     0.132351
     40 H                     0.128152
  ----------------------------------------
  Sum of atomic charges =     0.000000

                    Cartesian Multipole Moments
 -----------------------------------------------------------------
    Charge (ESU x 10^10)
                 0.0000
    Dipole Moment (Debye)
         X      -0.0003      Y       0.0561      Z      -0.0001
       Tot       0.0561
    Quadrupole Moments (Debye-Ang)
        XX    -116.5551     XY      -0.0005     YY    -119.9115
        XZ       0.7136     YZ       0.0015     ZZ    -128.4810

 Total job time:  77.94s(wall), 77.72s(cpu)
        *  Thank you very much for using Q-Chem.  Have a nice day.  *
