 Q-Chem 5.2, Q-Chem, Inc., Pleasanton, CA (2019)
 Q-Chem 5.2.1 for Intel X86 EM64T Linux

User input:
--------------------------------------------------------------
$molecule
0 1
C        -2.14377040710000   -2.14810487470000   -0.21254552200000
C        -2.07121819230000   -0.87738517930000    0.16712808310000
C        -0.89401973090000   -0.04343911030000    0.10007766920000
C        -0.87933888580000    1.36542300160000   -0.01860304480000
C        -2.04147594000000    2.28997586980000   -0.08414402320000
N         0.36329674660000    1.80830528420000   -0.08102361130000
N         1.16144750570000    0.74398343810000   -0.01440651220000
C         2.57995499150000    0.94727222920000    0.01523761960000
C         0.45737049210000   -0.41127084280000    0.10068121620000
C         1.02522639980000   -1.72523817270000    0.28721621210000
C         2.17135399260000   -2.17979534050000   -0.20803326500000
H        -3.06050070880000   -2.70708189160000   -0.13000267090000
H        -1.30248748860000   -2.66804278970000   -0.63820948800000
H        -2.95814007850000   -0.37883782900000    0.53961403570000
H        -2.65623392770000    2.19355884610000    0.81034384460000
H        -2.66186619230000    2.06115331160000   -0.94994130200000
H        -1.68303967950000    3.31232080590000   -0.16189566020000
H         2.75659716840000    1.97663221800000    0.32366664450000
H         3.02053409490000    0.79932002060000   -0.97393391530000
H         3.04459553370000    0.26118827720000    0.72366124330000
H         0.40715331310000   -2.38046514090000    0.88938584780000
H         2.80051818720000   -1.59717018250000   -0.85761414020000
H         2.50531856350000   -3.18211550460000   -0.00084623980000
$end

$rem
BASIS = 6-31G*
GUI = 2
METHOD = B3LYP
PRINT_ORBITALS false
MOLDEN_FORMAT false
--------------------------------------------------------------

             Standard Nuclear Orientation (Angstroms)
    I     Atom           X                Y                Z
 ----------------------------------------------------------------
    1      C      -1.1427780727    -2.8002941869    -0.2269829767
    2      C      -1.5726008947    -1.6036704504     0.1570591949
    3      C      -0.8134808409    -0.3764604609     0.0983190281
    4      C      -1.3488594596     0.9272012202    -0.0158258157
    5      C      -2.7792771379     1.3258356553    -0.0840314712
    6      N      -0.3770303452     1.8197838563    -0.0708600626
    7      N       0.7726944853     1.1505337873    -0.0037733759
    8      C       1.9995940860     1.8906069755     0.0333431987
    9      C       0.5743702664    -0.1883380155     0.1042630979
   10      C       1.6089715723    -1.1778342410     0.2893661457
   11      C       2.8432016019    -1.1472197918    -0.2017974847
   12      H      -1.7692951500    -3.6728244023    -0.1506256024
   13      H      -0.1640006153    -2.9490656966    -0.6502369468
   14      H      -2.5848959207    -1.4921344211     0.5268485567
   15      H      -3.3106553890     0.9930931370     0.8071765530
   16      H      -3.2585909712     0.8774090869    -0.9535259325
   17      H      -2.8475423837     2.4073868973    -0.1568174958
   18      H       1.7599513395     2.9058931287     0.3458784603
   19      H       2.4661531929     1.9308680456    -0.9541595982
   20      H       2.6926843575     1.4365642635     0.7418184238
   21      H       1.2933403215    -2.0250552663     0.8864745432
   22      H       3.1975033539    -0.3623038660    -0.8464929398
   23      H       3.5408521583    -1.9410146385     0.0038185457
 ----------------------------------------------------------------

    9    -459.6316238240      3.73e-06  Convergence criterion met
 Total energy in the final basis set =     -459.6316238240

                    Orbital Energies (a.u.)
 --------------------------------------------------------------

 Alpha MOs
 -- Occupied --
-14.4057 -14.3336 -10.2239 -10.2184 -10.2000 -10.1982 -10.1873 -10.1872
-10.1757 -10.1752 -10.1717  -1.0510  -0.8507  -0.8222  -0.7729  -0.7444
 -0.7313  -0.6698  -0.6240  -0.6022  -0.5561  -0.5267  -0.4995  -0.4815
 -0.4725  -0.4522  -0.4306  -0.4224  -0.4203  -0.4137  -0.3879  -0.3856
 -0.3768  -0.3575  -0.3500  -0.3039  -0.2935  -0.2726  -0.2271  -0.2061

          Ground-State Mulliken Net Atomic Charges

     Atom                 Charge (a.u.)
  ----------------------------------------
      1 C                    -0.363224
      2 C                    -0.116067
      3 C                    -0.057720
      4 C                     0.297999
      5 C                    -0.523541
      6 N                    -0.359010
      7 N                    -0.312548
      8 C                    -0.323339
      9 C                     0.329139
     10 C                    -0.105032
     11 C                    -0.357625
     12 H                     0.137245
     13 H                     0.146602
     14 H                     0.127113
     15 H                     0.158682
     16 H                     0.163957
     17 H                     0.173136
     18 H                     0.190561
     19 H                     0.168736
     20 H                     0.176604
     21 H                     0.154197
     22 H                     0.146413
     23 H                     0.147720
  ----------------------------------------
  Sum of atomic charges =     0.000000

                    Cartesian Multipole Moments
 -----------------------------------------------------------------
    Charge (ESU x 10^10)
                 0.0000
    Dipole Moment (Debye)
         X       1.3859      Y      -0.5451      Z       0.2768
       Tot       1.5147
    Quadrupole Moments (Debye-Ang)
        XX     -56.8043     XY       2.3703     YY     -65.9328
        XZ      -1.0717     YZ      -0.4385     ZZ     -67.4465

 Total job time:  29.45s(wall), 29.34s(cpu)
        *  Thank you very much for using Q-Chem.  Have a nice day.  *
