 Q-Chem 5.2, Q-Chem, Inc., Pleasanton, CA (2019)
 Q-Chem 5.2.1 for Intel X86 EM64T Linux

User input:
--------------------------------------------------------------
$molecule
0 1
C        -4.53592790440000   -0.98338262410000   -0.00542593280000
C        -3.78196546640000    0.10959552650000    0.00548849380000
C        -2.32634679210000    0.15763324230000    0.00228391500000
C        -1.50170104130000   -0.97245738130000   -0.00171071010000
C        -0.13164393490000   -0.81440582500000   -0.00423913730000
C         0.41057875230000    0.47494103600000   -0.00297579430000
C         1.82929880710000    0.77548127420000   -0.00521030790000
C         2.84437253500000   -0.07701257590000   -0.00027131720000
F         2.79306747130000   -1.40334270860000    0.00783611960000
F         4.11848411490000    0.30593988240000   -0.00242679310000
C        -0.50373407200000    1.53637243860000    0.00090199800000
N        -1.80667545570000    1.38830484980000    0.00381925040000
H        -5.61039785760000   -0.91937568190000   -0.00226444760000
H        -4.12440835320000   -1.97849847840000   -0.01839856450000
H        -4.23947490570000    1.08945218000000    0.01696559830000
H        -1.92850735140000   -1.96236866560000   -0.00232862470000
H         0.50731619430000   -1.68329015060000   -0.00740432700000
H         2.10016175620000    1.82148519450000   -0.01070298230000
H        -0.15182053710000    2.56093428690000    0.00207224930000
$end

$rem
BASIS = 6-31G*
GUI = 2
METHOD = B3LYP
PRINT_ORBITALS false
MOLDEN_FORMAT false
--------------------------------------------------------------

             Standard Nuclear Orientation (Angstroms)
    I     Atom           X                Y                Z
 ----------------------------------------------------------------
    1      C       4.4337666834    -0.9137070228     0.0049687901
    2      C       3.6626638206     0.1672508687    -0.0055255956
    3      C       2.2064686010     0.1923288190    -0.0023325654
    4      C       1.3997448378    -0.9506260019     0.0011939132
    5      C       0.0273658358    -0.8141984742     0.0037564771
    6      C      -0.5351201297     0.4664386043     0.0029959650
    7      C      -1.9584028190     0.7445698769     0.0053204219
    8      C      -2.9599079599    -0.1238218488     0.0000199905
    9      F      -2.8876952848    -1.4491747531    -0.0086153845
   10      F      -4.2398996461     0.2389916406     0.0023013314
   11      C       0.3623421913     1.5421565890    -0.0004391745
   12      N       1.6674563912     1.4146536467    -0.0033879973
   13      H       5.5070938228    -0.8327643068     0.0018555028
   14      H       4.0379893121    -1.9151931862     0.0175358263
   15      H       4.1046659506     1.1542043112    -0.0166022208
   16      H       1.8421072179    -1.9336844080     0.0014259951
   17      H      -0.5978141385    -1.6930512305     0.0065616227
   18      H      -2.2457257977     1.7861704504     0.0112245915
   19      H      -0.0056830944     2.5610423943    -0.0012081924
 ----------------------------------------------------------------

    9    -601.5549975911      6.42e-06  Convergence criterion met
 Total energy in the final basis set =     -601.5549975911

                    Orbital Energies (a.u.)
 --------------------------------------------------------------

 Alpha MOs
 -- Occupied --
-24.7526 -24.7418 -14.3268 -10.3654 -10.2278 -10.2227 -10.2155 -10.2117
-10.2074 -10.1997 -10.1895 -10.1862  -1.2936  -1.2325  -0.9531  -0.8400
 -0.8042  -0.7833  -0.7382  -0.6652  -0.6393  -0.6295  -0.5827  -0.5756
 -0.5374  -0.5270  -0.5113  -0.4903  -0.4657  -0.4511  -0.4485  -0.4439
 -0.4298  -0.4144  -0.4134  -0.4077  -0.3765  -0.3578  -0.3353  -0.2909
 -0.2738  -0.2553  -0.2199

          Ground-State Mulliken Net Atomic Charges

     Atom                 Charge (a.u.)
  ----------------------------------------
      1 C                    -0.347786
      2 C                    -0.087635
      3 C                     0.296971
      4 C                    -0.171372
      5 C                    -0.159273
      6 C                     0.162359
      7 C                    -0.299759
      8 C                     0.549007
      9 F                    -0.233631
     10 F                    -0.244177
     11 C                    -0.008682
     12 N                    -0.486893
     13 H                     0.150415
     14 H                     0.142869
     15 H                     0.146572
     16 H                     0.136704
     17 H                     0.149635
     18 H                     0.166132
     19 H                     0.138544
  ----------------------------------------
  Sum of atomic charges =     0.000000

                    Cartesian Multipole Moments
 -----------------------------------------------------------------
    Charge (ESU x 10^10)
                 0.0000
    Dipole Moment (Debye)
         X      -0.2554      Y      -1.0245      Z       0.0088
       Tot       1.0559
    Quadrupole Moments (Debye-Ang)
        XX     -66.5799     XY      -5.9467     YY     -63.9945
        XZ      -0.0131     YZ      -0.0231     ZZ     -69.1512

 Total job time:  21.34s(wall), 21.26s(cpu)
        *  Thank you very much for using Q-Chem.  Have a nice day.  *
