 Q-Chem 5.2, Q-Chem, Inc., Pleasanton, CA (2019)
 Q-Chem 5.2.1 for Intel X86 EM64T Linux

User input:
--------------------------------------------------------------
$molecule
0 1
C         2.20921472460000    0.47422256200000    2.90688484450000
C         1.43110561600000    0.56247623870000    1.83409211310000
C         1.62606711860000   -0.16993764930000    0.59815623610000
C         2.83714083430000   -0.81114178060000    0.21852193120000
C         2.79941600600000   -1.33764819190000   -1.02738109120000
S         1.28418869290000   -1.08456862810000   -1.79934919070000
C         0.67361812750000   -0.24715529390000   -0.40104236680000
C        -0.67404862270000    0.24805137610000   -0.39995044560000
S        -1.28659679790000    1.08683386530000   -1.79656557530000
C        -2.80115662730000    1.33805918660000   -1.02267194980000
C        -2.83721593450000    0.81006976610000    0.22265732320000
C        -1.62533821270000    0.16917283470000    0.60021383400000
C        -1.42852931550000   -0.56447109830000    1.83513127730000
C        -2.20476196700000   -0.47690044810000    2.90932638720000
H         2.01605897120000    1.06304681300000    3.78652721100000
H         3.05466073650000   -0.19060194510000    2.95530847920000
H         0.57782076460000    1.22807752360000    1.84457634320000
H         3.70630386080000   -0.85233061660000    0.84904205850000
H         3.57282938520000   -1.86221548890000   -1.55256929070000
H        -3.57546419840000    1.86274829680000   -1.54642107120000
H        -3.70573374250000    0.84987953580000    0.85415801190000
H        -0.57543421960000   -1.23034952530000    1.84354820130000
H        -3.04987855510000    0.18819153590000    2.95976161440000
H        -2.01024699090000   -1.06650298460000    3.78814698690000
$end

$rem
BASIS = 6-31G*
GUI = 2
METHOD = B3LYP
PRINT_ORBITALS false
MOLDEN_FORMAT false
--------------------------------------------------------------

             Standard Nuclear Orientation (Angstroms)
    I     Atom           X                Y                Z
 ----------------------------------------------------------------
    1      C      -1.9824480996     2.8383231586     1.0823633783
    2      C      -1.2117998496     1.7651912892     0.9459228907
    3      C      -1.6071480262     0.5296391879     0.2985525122
    4      C      -2.9505600716     0.1507448403     0.0271715290
    5      C      -3.0643705386    -1.0949513280    -0.4887691061
    6      S      -1.5399813512    -1.8676141924    -0.6761924930
    7      C      -0.7162321726    -0.4698967275    -0.0459999348
    8      C       0.7165541187    -0.4695363886     0.0465193685
    9      S       1.5412138506    -1.8667417632     0.6766452445
   10      C       3.0651970070    -1.0935421171     0.4880858937
   11      C       2.9505936300     0.1519948722    -0.0280747152
   12      C       1.6068700716     0.5302913995    -0.2987112687
   13      C       1.2106163315     1.7655934484    -0.9460134205
   14      C       1.9803271001     2.8394500846    -1.0819477412
   15      H      -1.6297437974     3.7176428631     1.5924519678
   16      H      -2.9817463222     2.8873545984     0.6847273476
   17      H      -0.2047355341     1.7750643335     1.3420971132
   18      H      -3.7953858805     0.7816197611     0.2344459964
   19      H      -3.9550861795    -1.6196185593    -0.7725149298
   20      H       3.9562889055    -1.6178124335     0.7713876462
   21      H       3.7950300065     0.7831413911    -0.2361189371
   22      H       0.2036646415     1.7746215979    -1.3425016969
   23      H       2.9794339270     2.8892775061    -0.6839328126
   24      H       1.6269632392     3.7185939135    -1.5918820344
 ----------------------------------------------------------------

    9   -1259.6111363113      5.29e-06  Convergence criterion met
 Total energy in the final basis set =    -1259.6111363113

                    Orbital Energies (a.u.)
 --------------------------------------------------------------

 Alpha MOs
 -- Occupied --
-88.9086 -88.9086 -10.2246 -10.2242 -10.2144 -10.2144 -10.1993 -10.1993
-10.1915 -10.1915 -10.1896 -10.1896 -10.1784 -10.1784  -7.9703  -7.9702
 -5.9343  -5.9343  -5.9306  -5.9306  -5.9273  -5.9273  -0.9031  -0.8794
 -0.7974  -0.7881  -0.7689  -0.7225  -0.7193  -0.6993  -0.6135  -0.5965
 -0.5941  -0.5521  -0.5499  -0.5092  -0.5081  -0.4739  -0.4518  -0.4436
 -0.4236  -0.4214  -0.4051  -0.3994  -0.3959  -0.3758  -0.3707  -0.3648
 -0.3622  -0.3420  -0.3380  -0.3074  -0.2924  -0.2643  -0.2394  -0.2279
 -0.2025

          Ground-State Mulliken Net Atomic Charges

     Atom                 Charge (a.u.)
  ----------------------------------------
      1 C                    -0.353928
      2 C                    -0.106147
      3 C                     0.174521
      4 C                    -0.135678
      5 C                    -0.342676
      6 S                     0.264545
      7 C                    -0.251619
      8 C                    -0.251578
      9 S                     0.264529
     10 C                    -0.342679
     11 C                    -0.135664
     12 C                     0.174531
     13 C                    -0.106212
     14 C                    -0.353898
     15 H                     0.145184
     16 H                     0.138648
     17 H                     0.150637
     18 H                     0.143711
     19 H                     0.172787
     20 H                     0.172788
     21 H                     0.143715
     22 H                     0.150646
     23 H                     0.138653
     24 H                     0.145184
  ----------------------------------------
  Sum of atomic charges =     0.000000

                    Cartesian Multipole Moments
 -----------------------------------------------------------------
    Charge (ESU x 10^10)
                 0.0000
    Dipole Moment (Debye)
         X      -0.0001      Y       0.6482      Z      -0.0008
       Tot       0.6482
    Quadrupole Moments (Debye-Ang)
        XX     -80.6901     XY       0.0018     YY     -91.8978
        XZ       2.8310     YZ       0.0015     ZZ     -99.0570

 Total job time:  43.73s(wall), 43.60s(cpu)
        *  Thank you very much for using Q-Chem.  Have a nice day.  *
