 Q-Chem 5.2, Q-Chem, Inc., Pleasanton, CA (2019)
 Q-Chem 5.2.1 for Intel X86 EM64T Linux

User input:
--------------------------------------------------------------
$molecule
0 1
C         4.65124740060000   -4.38727550990000   -0.16471918250000
C         3.67978754950000   -3.24791746430000   -0.10766112010000
C         2.47572324830000   -3.28932422220000   -0.79819034410000
C         1.58943770540000   -2.23052356180000   -0.75380704680000
C         1.88578217080000   -1.09707638290000   -0.00062921230000
N         0.99329363150000   -0.01560775810000    0.04978887510000
C        -0.37612218790000   -0.23413913240000    0.11761037040000
C        -0.89123823810000   -1.35441113600000    0.77721320010000
C        -2.24937263880000   -1.56407605980000    0.84053785270000
C        -3.15301632340000   -0.67084735420000    0.25609436620000
C        -4.57064387210000   -0.95514398060000    0.36641132500000
C        -5.59532637440000   -0.24906593530000   -0.09066196180000
F        -5.56908257090000    0.89692864210000   -0.76538750490000
F        -6.86734526970000   -0.61842256350000    0.07773255390000
C        -2.63349790690000    0.44754837230000   -0.40241832060000
C        -1.27526951500000    0.66042713690000   -0.47131432430000
C         1.50581490680000    1.29065389490000    0.02832915300000
C         2.59421694890000    1.60854847930000   -0.78022681050000
C         3.10562164780000    2.89174587250000   -0.78786257950000
C         2.54821135550000    3.89205760690000   -0.00205112270000
C         3.08616687310000    5.29024449960000   -0.02561207200000
C         1.46076880820000    3.56773576560000    0.80204715920000
C         0.94611735780000    2.28768785060000    0.82574483750000
C         3.09258223330000   -1.04879043880000    0.69551142630000
C         3.97307053530000   -2.10931671100000    0.63557165650000
H         4.20587746760000   -5.25509888540000   -0.64440302200000
H         4.97334952060000   -4.66672616970000    0.83709702070000
H         5.53766356510000   -4.09904003730000   -0.73003289190000
H         2.22827521790000   -4.15992201230000   -1.38865900460000
H         0.66223530790000   -2.27514805580000   -1.30630594820000
H        -0.21396475400000   -2.05227653780000    1.24669959400000
H        -2.62573442910000   -2.43237561220000    1.36174628110000
H        -4.84037990460000   -1.86054971290000    0.89134766840000
H        -3.29410009960000    1.15531078570000   -0.87549462610000
H        -0.89428588980000    1.52456028090000   -0.99489996830000
H         3.03604405800000    0.84364129380000   -1.40194988520000
H         3.94983701200000    3.11979244080000   -1.42272299100000
H         4.07553031210000    5.31923072530000   -0.47518997400000
H         3.14465694410000    5.69746103280000    0.98200096400000
H         2.42759385180000    5.93562388950000   -0.60772172070000
H         1.01667055390000    4.32923574560000    1.42706487760000
H         0.10907646650000    2.04986765770000    1.46583572760000
H         3.33178562650000   -0.17490913270000    1.28367789530000
H         4.90354700250000   -2.05805057930000    1.18274629370000
$end

$rem
BASIS = 6-31G*
GUI = 2
METHOD = B3LYP
PRINT_ORBITALS false
MOLDEN_FORMAT false
--------------------------------------------------------------

             Standard Nuclear Orientation (Angstroms)
    I     Atom           X                Y                Z
 ----------------------------------------------------------------
    1      C       4.5376847045    -4.3788849045    -0.1488466805
    2      C       3.5634176379    -3.2417073956    -0.0963336620
    3      C       2.3617705571    -3.2866712008    -0.7908396156
    4      C       1.4729050732    -2.2298686181    -0.7506247953
    5      C       1.7641148426    -1.0948914130     0.0022516980
    6      N       0.8689739993    -0.0154284398     0.0484547595
    7      C      -0.5001542525    -0.2370418170     0.1119429048
    8      C      -1.0148941704    -1.3577540338     0.7710914041
    9      C      -2.3727464625    -1.5704800386     0.8301104000
   10      C      -3.2764832667    -0.6799986500     0.2416324451
   11      C      -4.6938136529    -0.9674403243     0.3475292352
   12      C      -5.7185836626    -0.2642444586    -0.1137715643
   13      F      -5.6927205686     0.8810453398    -0.7897073935
   14      F      -6.9903051300    -0.6363443813     0.0507862026
   15      C      -2.7573403471     0.4388486827    -0.4164090582
   16      C      -1.3993828138     0.6547824464    -0.4810027082
   17      C       1.3785542676     1.2919870816     0.0272253479
   18      C       2.4689222033     1.6114789894    -0.7780456648
   19      C       2.9773927438     2.8958433538    -0.7854287350
   20      C       2.4150521886     3.8957527555    -0.0026236929
   21      C       2.9498617991     5.2951495192    -0.0259736933
   22      C       1.3256734677     3.5698307943     0.7982001797
   23      C       0.8138951728     2.2886265360     0.8216306183
   24      C       2.9684630306    -1.0430357994     0.7023703660
   25      C       3.8515873794    -2.1015949207     0.6465817371
   26      H       4.0959232403    -5.2482743019    -0.6290312893
   27      H       4.8570736989    -4.6564608233     0.8543583990
   28      H       5.4253223611    -4.0892434555    -0.7115189795
   29      H       2.1183066617    -4.1585034334    -1.3811430703
   30      H       0.5476628922    -2.2772556314    -1.3061714135
   31      H      -0.3375907852    -2.0535247529     1.2436336734
   32      H      -2.7488502692    -2.4390567283     1.3510432139
   33      H      -4.9632195992    -1.8728728759     0.8725888152
   34      H      -3.4179833545     1.1445507899    -0.8924966912
   35      H      -1.0186396552     1.5192007209    -1.0042925262
   36      H       2.9145889666     0.8468919094    -1.3974175333
   37      H       3.8232014216     3.1251202433    -1.4177200832
   38      H       3.9406555047     5.3259107057    -0.4722718983
   39      H       3.0040399598     5.7036369126     0.9813659714
   40      H       2.2917566752     5.9383504270    -0.6110163092
   41      H       0.8777323949     4.3310091591     1.4208629454
   42      H      -0.0247340922     2.0495985093     1.4591875206
   43      H       3.2036825020    -0.1679416806     1.2903403305
   44      H       4.7801061316    -2.0475647477     1.1968075300
 ----------------------------------------------------------------

    9   -1104.1969942186      4.92e-06  Convergence criterion met
 Total energy in the final basis set =    -1104.1969942186

                    Orbital Energies (a.u.)
 --------------------------------------------------------------

 Alpha MOs
 -- Occupied --
-24.7370 -24.7262 -14.3639 -10.3473 -10.2251 -10.2219 -10.2218 -10.1965
-10.1955 -10.1880 -10.1878 -10.1867 -10.1839 -10.1829 -10.1828 -10.1828
-10.1826 -10.1822 -10.1822 -10.1819 -10.1818 -10.1817 -10.1816 -10.1792
-10.1789  -1.2767  -1.2162  -0.9774  -0.8635  -0.8608  -0.8464  -0.8007
 -0.7803  -0.7635  -0.7490  -0.7477  -0.7447  -0.7266  -0.6944  -0.6720
 -0.6376  -0.6204  -0.6171  -0.6073  -0.5984  -0.5903  -0.5683  -0.5637
 -0.5379  -0.5343  -0.5198  -0.5108  -0.4782  -0.4728  -0.4684  -0.4617
 -0.4587  -0.4485  -0.4417  -0.4335  -0.4325  -0.4277  -0.4235  -0.4215
 -0.4208  -0.4199  -0.4192  -0.4152  -0.4043  -0.3939  -0.3856  -0.3771
 -0.3701  -0.3642  -0.3588  -0.3527  -0.3502  -0.3443  -0.3369  -0.3363
 -0.3180  -0.2808  -0.2577  -0.2512  -0.2475  -0.2436  -0.2264  -0.1726

          Ground-State Mulliken Net Atomic Charges

     Atom                 Charge (a.u.)
  ----------------------------------------
      1 C                    -0.529636
      2 C                     0.182070
      3 C                    -0.194545
      4 C                    -0.164170
      5 C                     0.274847
      6 N                    -0.653946
      7 C                     0.303451
      8 C                    -0.178628
      9 C                    -0.205665
     10 C                     0.198046
     11 C                    -0.298577
     12 C                     0.534858
     13 F                    -0.239044
     14 F                    -0.253614
     15 C                    -0.205807
     16 C                    -0.178605
     17 C                     0.274122
     18 C                    -0.162392
     19 C                    -0.193729
     20 C                     0.181813
     21 C                    -0.529304
     22 C                    -0.189129
     23 C                    -0.163687
     24 C                    -0.162492
     25 C                    -0.188645
     26 H                     0.154232
     27 H                     0.159695
     28 H                     0.163251
     29 H                     0.122473
     30 H                     0.145307
     31 H                     0.148005
     32 H                     0.127151
     33 H                     0.155808
     34 H                     0.138434
     35 H                     0.148541
     36 H                     0.144432
     37 H                     0.122177
     38 H                     0.154453
     39 H                     0.158415
     40 H                     0.164511
     41 H                     0.122524
     42 H                     0.145931
     43 H                     0.145063
     44 H                     0.122003
  ----------------------------------------
  Sum of atomic charges =     0.000000

                    Cartesian Multipole Moments
 -----------------------------------------------------------------
    Charge (ESU x 10^10)
                 0.0000
    Dipole Moment (Debye)
         X       2.2428      Y      -0.2709      Z       0.3170
       Tot       2.2812
    Quadrupole Moments (Debye-Ang)
        XX    -145.2836     XY       1.3647     YY    -129.6464
        XZ      -2.1915     YZ      -0.0369     ZZ    -142.2982

 Total job time:  128.25s(wall), 127.46s(cpu)
        *  Thank you very much for using Q-Chem.  Have a nice day.  *
