 Q-Chem 5.4, Q-Chem, Inc., Pleasanton, CA (2021)
 Q-Chem 5.4.2 for Intel X86 EM64T Linux

User input:
--------------------------------------------------------------
$molecule
0 1
C           -1.18800203500000        4.59075456840000        0.21634324440000
C           -0.19083607870000        3.73843147760000        0.01477179810000
C           -0.27952762410000        2.28188940460000       -0.02155662920000
C           -1.49097993880000        1.59625866380000        0.02941210180000
C           -1.54975248880000        0.20313646530000       -0.00479539320000
C           -2.86284353790000       -0.42250579430000        0.05361912320000
C           -3.16024098990000       -1.71365211840000        0.05708574870000
F           -2.33372526910000       -2.74628567040000        0.00865156620000
F           -4.41197430670000       -2.16442133620000        0.11466678000000
C           -0.36036078790000       -0.51772657100000       -0.09436498350000
C            0.85627794890000        0.15271435600000       -0.14974836520000
C            2.09548901010000       -0.66351619670000       -0.24823855000000
O            2.10615541150000       -1.86868845480000       -0.29512491080000
O            3.20040973510000        0.09247344760000       -0.28963125520000
C            4.44789383400000       -0.59683764110000       -0.36900550130000
C            4.91496345500000       -1.06537785870000        1.00171652920000
C            0.89797884380000        1.54061472190000       -0.11508981550000
H           -1.01887905390000        5.65362426830000        0.22739498780000
H           -2.20433193940000        4.27669745570000        0.38131905580000
H            0.80901245330000        4.12707632130000       -0.13303029180000
H           -2.41372032240000        2.15222643150000        0.09202212540000
H           -3.71297911240000        0.24273461400000        0.10234137390000
H           -0.34683844080000       -1.59492214260000       -0.12635231210000
H            5.14414559050000        0.12741201420000       -0.79734188000000
H            4.33726698410000       -1.45317772950000       -1.04249573660000
H            4.98137269300000       -0.22272068640000        1.68599875690000
H            5.89248900690000       -1.53062331380000        0.91364049010000
H            4.21349701320000       -1.79278853870000        1.40279815900000
H            1.85194898740000        2.04281990660000       -0.15938213840000
$end

$rem
BASIS = 6-31G*
GUI = 2
METHOD = B3LYP
PRINT_ORBITALS false
MOLDEN_FORMAT false
$end
--------------------------------------------------------------

             Standard Nuclear Orientation (Angstroms)
    I     Atom           X                Y                Z
 ----------------------------------------------------------------
    1      C       1.1297227103    -4.5650729041     0.1958371378
    2      C       0.1629160579    -3.6786286521    -0.0064674062
    3      C       0.3012687665    -2.2258386746    -0.0374603809
    4      C       1.5351535617    -1.5820267776     0.0203201387
    5      C       1.6414381993    -0.1916078657    -0.0088800388
    6      C       2.9748320817     0.3887653076     0.0565136154
    7      C       3.3159878917     1.6690183299     0.0655138476
    8      F       2.5252877852     2.7293498893     0.0175921902
    9      F       4.5821111483     2.0767127479     0.1292470422
   10      C       0.4776194206     0.5696274554    -0.1003430550
   11      C      -0.7609150074    -0.0588123063    -0.1625050046
   12      C      -1.9712441293     0.7994605520    -0.2627437365
   13      O      -1.9407067685     2.0044458501    -0.3055242895
   14      O      -3.1010909018     0.0816719275    -0.3107985793
   15      C      -4.3240805770     0.8133179929    -0.3923884956
   16      C      -4.7801266351     1.2929477940     0.9782099496
   17      C      -0.8499619822    -1.4445952086    -0.1327730467
   18      H       0.9244807828    -5.6215986152     0.2026117837
   19      H       2.1555202102    -4.2863509800     0.3656280127
   20      H      -0.8490135580    -4.0325126978    -0.1592806713
   21      H       2.4381921117    -2.1692948550     0.0844104791
   22      H       3.8016418297    -0.3051933377     0.1060736086
   23      H       0.5008901491     1.6467588754    -0.1286753619
   24      H      -5.0429504846     0.1146174526    -0.8257702394
   25      H      -4.1818179937     1.6676205116    -1.0625185635
   26      H      -4.8777727511     0.4507788773     1.6593415198
   27      H      -5.7409095081     1.7914963764     0.8881404831
   28      H      -4.0558341601     1.9947202135     1.3843673353
   29      H      -1.8202978192    -1.9138780323    -0.1822996766
 ----------------------------------------------------------------

    9    -852.7130422351      6.81e-06  Convergence criterion met
 Total energy in the final basis set =     -852.7130422351

                    Orbital Energies (a.u.)
 --------------------------------------------------------------

 Alpha MOs
 -- Occupied --
-24.7473 -24.7366 -19.1912 -19.1324 -10.3609 -10.3135 -10.2427 -10.2144
-10.2065 -10.2049 -10.2041 -10.2001 -10.1970 -10.1968 -10.1956 -10.1869
-10.1797  -1.2893  -1.2276  -1.1083  -1.0173  -0.8810  -0.8210  -0.8028
 -0.7740  -0.7503  -0.7350  -0.6756  -0.6506  -0.6333  -0.6178  -0.5891
 -0.5759  -0.5515  -0.5268  -0.5223  -0.5124  -0.4985  -0.4894  -0.4773
 -0.4612  -0.4529  -0.4460  -0.4434  -0.4397  -0.4323  -0.4208  -0.4103
 -0.4072  -0.3950  -0.3809  -0.3783  -0.3757  -0.3611  -0.3522  -0.3394
 -0.3244  -0.2993  -0.2907  -0.2737  -0.2397  -0.2254

          Ground-State Mulliken Net Atomic Charges

     Atom                 Charge (a.u.)
  ----------------------------------------
      1 C                    -0.353130
      2 C                    -0.108573
      3 C                     0.176605
      4 C                    -0.248227
      5 C                     0.197450
      6 C                    -0.300362
      7 C                     0.550881
      8 F                    -0.226582
      9 F                    -0.247162
     10 C                    -0.230725
     11 C                     0.049029
     12 C                     0.605137
     13 O                    -0.490125
     14 O                    -0.469728
     15 C                    -0.045475
     16 C                    -0.465160
     17 C                    -0.239240
     18 H                     0.148115
     19 H                     0.143938
     20 H                     0.131370
     21 H                     0.130700
     22 H                     0.159982
     23 H                     0.169443
     24 H                     0.150935
     25 H                     0.168877
     26 H                     0.156391
     27 H                     0.151847
     28 H                     0.180464
     29 H                     0.153327
  ----------------------------------------
  Sum of atomic charges =     0.000000

                    Cartesian Multipole Moments
 -----------------------------------------------------------------
    Charge (ESU x 10^10)
                 0.0000
    Dipole Moment (Debye)
         X      -0.7452      Y      -2.5397      Z       0.1876
       Tot       2.6534
    Quadrupole Moments (Debye-Ang)
        XX     -82.4982     XY      -2.8113     YY     -96.7279
        XZ       0.6994     YZ       0.2921     ZZ     -97.9123

 Total job time:  88.38s(wall), 81.17s(cpu)
        *  Thank you very much for using Q-Chem.  Have a nice day.  *
