 Q-Chem 5.2, Q-Chem, Inc., Pleasanton, CA (2019)
 Q-Chem 5.2.1 for Intel X86 EM64T Linux

User input:
--------------------------------------------------------------
$molecule
0 1
C        -3.73116362420000   -0.62776477150000   -0.01964212920000
C        -2.85374723910000    0.36869091870000    0.02005167150000
C        -1.40233638560000    0.25542153080000    0.00981559670000
C        -0.63148188270000    1.42017179660000    0.00595448220000
C         0.74519986080000    1.36395759090000   -0.00602052520000
C         1.41850385500000    0.14022722820000   -0.01044378590000
C         2.87432285360000    0.13471787570000   -0.02037187970000
C         3.66750555990000   -0.92990609580000    0.02198327640000
C         0.64736799840000   -1.02466539510000   -0.00554832920000
C        -0.72876086370000   -0.96847172980000    0.00398418660000
H        -4.79117805300000   -0.43997033210000   -0.00873039790000
H        -3.43840599570000   -1.66258328470000   -0.06627412440000
H        -3.22265065580000    1.38694073200000    0.06137260340000
H        -1.12647208130000    2.38162213800000    0.01053154790000
H         1.31693219940000    2.28185067670000   -0.01004469710000
H         3.32507959890000    1.11938936450000   -0.06359329600000
H         3.29128508790000   -1.93727937700000    0.07087654610000
H         4.73931062180000   -0.82924513190000    0.01117497810000
H         1.13268132480000   -1.98861681870000   -0.01153513820000
H        -1.29105382040000   -1.88964894580000    0.00905146630000
$end

$rem
BASIS = 6-31G*
GUI = 2
METHOD = B3LYP
PRINT_ORBITALS false
MOLDEN_FORMAT false
--------------------------------------------------------------

             Standard Nuclear Orientation (Angstroms)
    I     Atom           X                Y                Z
 ----------------------------------------------------------------
    1      C       3.7024430848    -0.7682902753     0.0191458592
    2      C       2.8664111126     0.2631329480    -0.0205495975
    3      C       1.4115888844     0.2091840553    -0.0100615898
    4      C       0.6889046083     1.4044194362    -0.0062437574
    5      C      -0.6889223258     1.4044291279     0.0059628062
    6      C      -1.4115990195     0.2091927278     0.0106722562
    7      C      -2.8664286330     0.2630939512     0.0208374194
    8      C      -3.7023997312    -0.7682833765    -0.0212350925
    9      C      -0.6886396068    -0.9861965152     0.0058200565
   10      C       0.6886344787    -0.9862038332    -0.0039439228
   11      H       4.7692357509    -0.6239075836     0.0080349429
   12      H       3.3677114340    -1.7902945236     0.0659749707
   13      H       3.2765499391     1.2654759032    -0.0620776086
   14      H       1.2227136783     2.3448703262    -0.0110401549
   15      H      -1.2227232441     2.3448877836     0.0099470676
   16      H      -3.2766232412     1.2653443913     0.0639896363
   17      H      -3.3676066145    -1.7901760342    -0.0700437838
   18      H      -4.7692028265    -0.6239698112    -0.0102673977
   19      H      -1.2128816838    -1.9295410743     0.0120249883
   20      H       1.2128696931    -1.9295588542    -0.0089692853
 ----------------------------------------------------------------

    8    -387.0468525481      4.33e-06  Convergence criterion met
 Total energy in the final basis set =     -387.0468525481

                    Orbital Energies (a.u.)
 --------------------------------------------------------------

 Alpha MOs
 -- Occupied --
-10.1940 -10.1940 -10.1897 -10.1897 -10.1871 -10.1866 -10.1864 -10.1859
-10.1793 -10.1793  -0.8662  -0.8075  -0.7663  -0.7489  -0.7151  -0.6322
 -0.6169  -0.5655  -0.5592  -0.5092  -0.4730  -0.4671  -0.4476  -0.4243
 -0.4236  -0.4117  -0.3816  -0.3782  -0.3605  -0.3426  -0.3340  -0.3215
 -0.2685  -0.2533  -0.2095

          Ground-State Mulliken Net Atomic Charges

     Atom                 Charge (a.u.)
  ----------------------------------------
      1 C                    -0.352633
      2 C                    -0.113739
      3 C                     0.179849
      4 C                    -0.197538
      5 C                    -0.197526
      6 C                     0.179831
      7 C                    -0.113749
      8 C                    -0.352620
      9 C                    -0.184666
     10 C                    -0.184665
     11 H                     0.144367
     12 H                     0.142673
     13 H                     0.126584
     14 H                     0.127849
     15 H                     0.127848
     16 H                     0.126590
     17 H                     0.142675
     18 H                     0.144366
     19 H                     0.127254
     20 H                     0.127251
  ----------------------------------------
  Sum of atomic charges =     0.000000

                    Cartesian Multipole Moments
 -----------------------------------------------------------------
    Charge (ESU x 10^10)
                 0.0000
    Dipole Moment (Debye)
         X      -0.0001      Y       0.0667      Z       0.0000
       Tot       0.0667
    Quadrupole Moments (Debye-Ang)
        XX     -53.7161     XY      -0.0001     YY     -52.4479
        XZ      -0.0631     YZ       0.0017     ZZ     -64.0190

 Total job time:  16.70s(wall), 16.63s(cpu)
        *  Thank you very much for using Q-Chem.  Have a nice day.  *
