 Q-Chem 5.2, Q-Chem, Inc., Pleasanton, CA (2019)
 Q-Chem 5.2.1 for Intel X86 EM64T Linux

User input:
--------------------------------------------------------------
$molecule
0 1
C         4.00943639350000    2.37725665070000   -0.16816383600000
C         3.60735983590000    1.11759863280000   -0.02870860720000
C         2.23291810520000    0.68835188510000   -0.04033802330000
C         1.04823302550000    1.36554235090000   -0.18282203880000
C         0.01739915580000    0.39691386350000   -0.11021884320000
C        -1.40489261640000    0.73321071300000   -0.21944036390000
O        -1.81549207690000    1.86154520030000   -0.34900319080000
O        -2.20313661370000   -0.34430286110000   -0.15829273290000
C        -3.61186958700000   -0.12230486270000   -0.23247606070000
C        -4.31843425360000   -1.13147241260000    0.65592615470000
C         0.65134869450000   -0.82727311420000    0.07558418360000
C         0.12102150770000   -2.15624152700000    0.22260151730000
C         0.88015405490000   -3.23707918550000    0.39359042360000
O         1.98131810540000   -0.63537063730000    0.11520007670000
H         5.05291998980000    2.63665727450000   -0.15127009940000
H         3.31089242350000    3.18423426210000   -0.30279472140000
H         4.32369227660000    0.31839345220000    0.10617118170000
H         0.90229682290000    2.41583815720000   -0.32270824920000
H        -3.92006358840000   -0.23886332920000   -1.27775357280000
H        -3.82278459990000    0.90548872460000    0.08162657920000
H        -4.08925456600000   -2.14341061730000    0.33199225400000
H        -5.39203607480000   -0.97642344980000    0.59983474640000
H        -3.99674085470000   -1.01494368720000    1.68773540760000
H        -0.95479654600000   -2.22065331930000    0.18378174790000
H         1.95419766620000   -3.16893833910000    0.43084708940000
H         0.44861897590000   -4.21638257040000    0.50064294690000
$end

$rem
BASIS = 6-31G*
GUI = 2
METHOD = B3LYP
PRINT_ORBITALS false
MOLDEN_FORMAT false
--------------------------------------------------------------

             Standard Nuclear Orientation (Angstroms)
    I     Atom           X                Y                Z
 ----------------------------------------------------------------
    1      C       4.5044883237    -1.3407536540    -0.1361763052
    2      C       3.8049469910    -0.2105981249    -0.1009336453
    3      C       2.3683392173    -0.1358251323    -0.0373318467
    4      C       1.3879625774    -1.0947978278     0.0026728148
    5      C       0.1512542544    -0.4067590301     0.0599962335
    6      C      -1.1431982662    -1.0919567965     0.1132455479
    7      O      -1.2638505047    -2.2931976341     0.0819302814
    8      O      -2.1804594029    -0.2441328355     0.1984035185
    9      C      -3.4905022514    -0.8115021403     0.2329675808
   10      C      -4.4459686673     0.1060609829    -0.5100486447
   11      C       0.4636177063     0.9487417985     0.0502434678
   12      C      -0.3773219014     2.1151432061     0.0869367411
   13      C       0.0916385089     3.3615778698     0.0725757905
   14      O       1.7987077053     1.0947882499    -0.0082350930
   15      H       5.5788048879    -1.3325911098    -0.1831804594
   16      H       4.0267863799    -2.3045057062    -0.1192987066
   17      H       4.3017771143     0.7500712252    -0.1190408854
   18      H       1.5053112933    -2.1578782717    -0.0060482181
   19      H      -3.7877045334    -0.9176138620     1.2825320629
   20      H      -3.4546239910    -1.8068605978    -0.2225316624
   21      H      -4.4600069715     1.0893166366    -0.0469215813
   22      H      -5.4478013068    -0.3127012244    -0.4821761940
   23      H      -4.1352976695     0.2136596964    -1.5461963026
   24      H      -1.4350506755     1.9088902785     0.1282877821
   25      H       1.1485962455     3.5636038549     0.0322427094
   26      H      -0.5675121104     4.2109599298     0.1006553925
 ----------------------------------------------------------------

    9    -652.0286245602      6.91e-06  Convergence criterion met
 Total energy in the final basis set =     -652.0286245602

                    Orbital Energies (a.u.)
 --------------------------------------------------------------

 Alpha MOs
 -- Occupied --
-19.2265 -19.1908 -19.1299 -10.3155 -10.2575 -10.2485 -10.2419 -10.2021
-10.2009 -10.1972 -10.1900 -10.1882 -10.1878 -10.1856  -1.1323  -1.1064
 -1.0151  -0.8257  -0.8224  -0.7843  -0.7757  -0.7212  -0.6774  -0.6359
 -0.6168  -0.5823  -0.5744  -0.5623  -0.5127  -0.4951  -0.4834  -0.4735
 -0.4717  -0.4569  -0.4455  -0.4314  -0.4263  -0.4088  -0.4051  -0.3971
 -0.3870  -0.3746  -0.3681  -0.3622  -0.3401  -0.3261  -0.2993  -0.2958
 -0.2744  -0.2736  -0.2025

          Ground-State Mulliken Net Atomic Charges

     Atom                 Charge (a.u.)
  ----------------------------------------
      1 C                    -0.342786
      2 C                    -0.124470
      3 C                     0.335981
      4 C                    -0.219691
      5 C                    -0.004154
      6 C                     0.585186
      7 O                    -0.487817
      8 O                    -0.476595
      9 C                    -0.048670
     10 C                    -0.457530
     11 C                     0.295058
     12 C                    -0.112618
     13 C                    -0.347045
     14 O                    -0.489352
     15 H                     0.151135
     16 H                     0.149869
     17 H                     0.145724
     18 H                     0.163036
     19 H                     0.151412
     20 H                     0.178407
     21 H                     0.158628
     22 H                     0.155415
     23 H                     0.162584
     24 H                     0.170402
     25 H                     0.159369
     26 H                     0.148521
  ----------------------------------------
  Sum of atomic charges =     0.000000

                    Cartesian Multipole Moments
 -----------------------------------------------------------------
    Charge (ESU x 10^10)
                 0.0000
    Dipole Moment (Debye)
         X      -0.5081      Y       1.5710      Z      -0.0580
       Tot       1.6522
    Quadrupole Moments (Debye-Ang)
        XX     -65.0648     XY      -3.2078     YY     -82.5049
        XZ      -0.4758     YZ       0.2560     ZZ     -83.3308

 Total job time:  38.98s(wall), 38.85s(cpu)
        *  Thank you very much for using Q-Chem.  Have a nice day.  *
