 Q-Chem 5.2, Q-Chem, Inc., Pleasanton, CA (2019)
 Q-Chem 5.2.1 for Intel X86 EM64T Linux

User input:
--------------------------------------------------------------
$molecule
0 1
C        -4.38034102460000    0.54081405660000    0.48641282700000
C        -3.52243505400000   -0.24155881150000   -0.15834544690000
C        -2.06898943140000   -0.12534634780000   -0.14033083550000
C        -1.29437513890000   -1.26993330860000   -0.22625305790000
C         0.10221866760000   -1.22874216800000   -0.16140151340000
C         0.89419474840000   -2.44803238960000   -0.25504975330000
C         0.49105700510000   -3.63648751220000    0.17701104210000
C         0.67406139030000    0.04615068750000   -0.03162825660000
C         2.14142298640000    0.25065498060000    0.10433734420000
O         2.94366593250000   -0.60070448740000    0.40890683200000
O         2.48547434760000    1.51649864300000   -0.15124086050000
C         3.86336263700000    1.81994169300000   -0.01319531990000
N        -0.04929869650000    1.15965418030000   -0.01446272020000
C        -1.36983476560000    1.10815621360000   -0.06844492290000
N        -2.00683754240000    2.31560839200000   -0.03344898140000
H        -5.44141715790000    0.36291123840000    0.43714171860000
H        -4.05948092110000    1.34888712570000    1.12130406350000
H        -3.89738548100000   -1.08713606510000   -0.72361293370000
H        -1.78491953390000   -2.22599977470000   -0.34212649280000
H         1.88039756990000   -2.33941568290000   -0.68149515310000
H        -0.45894288090000   -3.78372209810000    0.66430308880000
H         1.11534300360000   -4.50786231090000    0.08240236880000
H         3.96634083410000    2.87805521950000   -0.23946300840000
H         4.45822512640000    1.22003102640000   -0.70620197890000
H         4.20001703810000    1.60995109690000    1.00456281590000
H        -1.39626953200000    3.10386084510000   -0.18073381230000
H        -2.92583260620000    2.36924958440000   -0.44164237030000
$end

$rem
BASIS = 6-31G*
GUI = 2
METHOD = B3LYP
PRINT_ORBITALS false
MOLDEN_FORMAT false
--------------------------------------------------------------

             Standard Nuclear Orientation (Angstroms)
    I     Atom           X                Y                Z
 ----------------------------------------------------------------
    1      C       4.3574363451    -0.5807001368     0.4747212563
    2      C       3.5041512345     0.2089503281    -0.1672910910
    3      C       2.0498734140     0.1043636876    -0.1455725176
    4      C       1.2842274836     1.2551722483    -0.2287302425
    5      C      -0.1124783249     1.2251177877    -0.1602736351
    6      C      -0.8949073829     2.4507713933    -0.2510632735
    7      C      -0.4811473549     3.6356692805     0.1807257788
    8      C      -0.6941711756    -0.0452442474    -0.0298484930
    9      C      -2.1627652302    -0.2380881738     0.1097990180
   10      O      -2.9573729963     0.6194596645     0.4170114271
   11      O      -2.5176025094    -1.5009643119    -0.1457124307
   12      C      -3.8975131637    -1.7934614059    -0.0042824832
   13      N       0.0202927721    -1.1645136164    -0.0152935486
   14      C       1.3410542682    -1.1235511949    -0.0726762920
   15      N       1.9684580594    -2.3360870104    -0.0401279329
   16      H       5.4197713611    -0.4112632535     0.4228071754
   17      H       4.0317657591    -1.3866077598     1.1099155146
   18      H       3.8843912060     1.0518809111    -0.7329779678
   19      H       1.7821083352     2.2073595497    -0.3452529642
   20      H      -1.8830517252     2.3503404868    -0.6750133469
   21      H       0.4712624479     3.7749654972     0.6656417271
   22      H      -1.0986802867     4.5120770463     0.0883117384
   23      H      -4.0095465876    -2.8505636086    -0.2309744679
   24      H      -4.4893501895    -1.1883402118    -0.6953466582
   25      H      -4.2298328155    -1.5814704802     1.0144850838
   26      H       1.3512183948    -3.1193271623    -0.1863404744
   27      H       2.8859316458    -2.3968068490    -0.4507451112
 ----------------------------------------------------------------

    9    -686.3144547662      6.16e-06  Convergence criterion met
 Total energy in the final basis set =     -686.3144547662

                    Orbital Energies (a.u.)
 --------------------------------------------------------------

 Alpha MOs
 -- Occupied --
-19.1826 -19.1284 -14.3466 -14.3208 -10.3061 -10.2625 -10.2322 -10.2291
-10.2058 -10.2042 -10.2027 -10.1985 -10.1904 -10.1819 -10.1723  -1.1029
 -1.0103  -0.9743  -0.9001  -0.8332  -0.8034  -0.7600  -0.7431  -0.7148
 -0.6541  -0.6398  -0.5983  -0.5774  -0.5537  -0.5379  -0.5316  -0.4891
 -0.4821  -0.4797  -0.4753  -0.4577  -0.4551  -0.4301  -0.4272  -0.4111
 -0.4027  -0.3962  -0.3872  -0.3751  -0.3509  -0.3457  -0.3319  -0.3161
 -0.2943  -0.2818  -0.2780  -0.2512  -0.2446  -0.2040

          Ground-State Mulliken Net Atomic Charges

     Atom                 Charge (a.u.)
  ----------------------------------------
      1 C                    -0.365322
      2 C                    -0.139352
      3 C                     0.146807
      4 C                    -0.230254
      5 C                     0.122250
      6 C                    -0.101781
      7 C                    -0.350556
      8 C                     0.166876
      9 C                     0.595484
     10 O                    -0.492358
     11 O                    -0.429496
     12 C                    -0.215799
     13 N                    -0.555414
     14 C                     0.425123
     15 N                    -0.775754
     16 H                     0.148741
     17 H                     0.169294
     18 H                     0.141526
     19 H                     0.140938
     20 H                     0.157026
     21 H                     0.136271
     22 H                     0.143816
     23 H                     0.162892
     24 H                     0.163733
     25 H                     0.167243
     26 H                     0.339652
     27 H                     0.328412
  ----------------------------------------
  Sum of atomic charges =     0.000000

                    Cartesian Multipole Moments
 -----------------------------------------------------------------
    Charge (ESU x 10^10)
                 0.0000
    Dipole Moment (Debye)
         X       2.5138      Y      -1.6078      Z      -1.3782
       Tot       3.2869
    Quadrupole Moments (Debye-Ang)
        XX     -74.6514     XY       3.8046     YY     -78.4237
        XZ       0.2864     YZ       0.2590     ZZ     -88.2279

 Total job time:  43.68s(wall), 43.55s(cpu)
        *  Thank you very much for using Q-Chem.  Have a nice day.  *
