 Q-Chem 5.2, Q-Chem, Inc., Pleasanton, CA (2019)
 Q-Chem 5.2.1 for Intel X86 EM64T Linux

User input:
--------------------------------------------------------------
$molecule
0 1
C        -2.82728975670000    2.30793576930000    0.62320937150000
C        -2.52539632310000    1.28598341170000   -0.16636523140000
C        -1.25244758780000    0.56705846250000   -0.14832492510000
C        -0.07408423520000    1.25260858870000    0.13429434890000
C         1.16488673260000    0.63405615950000    0.17728921630000
C         2.39181344480000    1.47936740820000    0.38395197520000
C         2.89163649730000    2.00809499960000   -0.96222242850000
C         1.23267219880000   -0.73727548050000   -0.08162255630000
C         2.48369293140000   -1.51172944240000   -0.04795331900000
C         3.26422159870000   -1.64250691360000    1.01208019000000
C         0.06113028210000   -1.41990139130000   -0.39637673950000
C        -1.17771092750000   -0.80322988030000   -0.43490893070000
C        -2.40359917910000   -1.62595584340000   -0.71782452030000
C        -3.20816744340000   -1.87168618310000    0.55951717640000
H        -3.77884115590000    2.80859323760000    0.56242120760000
H        -2.14628127820000    2.67175129330000    1.37451666180000
H        -3.26076071290000    0.93659905280000   -0.87972167440000
H        -0.12643385240000    2.31782928120000    0.30954539010000
H         3.18656245880000    0.90217029320000    0.85359856840000
H         2.14850799000000    2.32252623190000    1.03390361410000
H         3.16470727360000    1.17927604420000   -1.61182899080000
H         3.76474615930000    2.64173457950000   -0.82307241300000
H         2.11472455190000    2.58836572800000   -1.45558331300000
H         2.71839766930000   -2.04769461110000   -0.96072972430000
H         3.03578405000000   -1.16101935550000    1.94910631870000
H         4.15329598100000   -2.25046176640000    0.99237922690000
H         0.12550311030000   -2.47983634800000   -0.60466449590000
H        -2.10218457340000   -2.58657857770000   -1.14094089920000
H        -3.03738537640000   -1.12492488410000   -1.45325008870000
H        -2.59705383310000   -2.39366750040000    1.29273435910000
H        -4.08661243980000   -2.47682085830000    0.34581586420000
H        -3.53119902640000   -0.92809483750000    0.99342123800000
$end

$rem
BASIS = 6-31G*
GUI = 2
METHOD = B3LYP
PRINT_ORBITALS false
MOLDEN_FORMAT false
--------------------------------------------------------------

             Standard Nuclear Orientation (Angstroms)
    I     Atom           X                Y                Z
 ----------------------------------------------------------------
    1      C       2.6778571160     2.4618304644    -0.6668155619
    2      C       2.4410688948     1.4366612110     0.1405961424
    3      C       1.2146362790     0.6407740991     0.1386565493
    4      C      -0.0042361357     1.2478852930    -0.1514449077
    5      C      -1.2029753744     0.5538340530    -0.1801126442
    6      C      -2.4799599507     1.3186762218    -0.3967612283
    7      C      -3.0082835301     1.8382325613     0.9420803906
    8      C      -1.1858344572    -0.8145383686     0.1017450277
    9      C      -2.3870054792    -1.6647584392     0.0850286454
   10      C      -3.1604096748    -1.8609430333    -0.9701283775
   11      C       0.0261220448    -1.4186110552     0.4239505816
   12      C       1.2248372534    -0.7265197138     0.4481879243
   13      C       2.4995696743    -1.4676075067     0.7407069581
   14      C       3.3148376909    -1.6848846460    -0.5350061788
   15      H       3.5970001896     3.0208860784    -0.6174597366
   16      H       1.9741047485     2.7705207637    -1.4218253844
   17      H       3.1981029074     1.1450721172     0.8572431510
   18      H      -0.0177967908     2.3112223391    -0.3445225308
   19      H      -3.2388153141     0.6860028383    -0.8541596919
   20      H      -2.2903551190     2.1641598947    -1.0614106441
   21      H      -3.2284788436     1.0052273438     1.6062441710
   22      H      -3.9189688552     2.4146761867     0.7952903658
   23      H      -2.2673669896     2.4732763691     1.4231971056
   24      H      -2.5863006629    -2.1987359980     1.0073383215
   25      H      -2.9640787405    -1.3821239378    -1.9157595879
   26      H      -4.0104235773    -2.5218951337    -0.9374301370
   27      H       0.0274318442    -2.4768569485     0.6500118045
   28      H       2.2586694939    -2.4376865383     1.1806933758
   29      H       3.1030412283    -0.9163672305     1.4656372817
   30      H       2.7352874414    -2.2556044881    -1.2574548949
   31      H       4.2292652486    -2.2313036622    -0.3141661050
   32      H       3.5783356843    -0.7306568382    -0.9855667897
 ----------------------------------------------------------------

    8    -544.2958803936      6.64e-06  Convergence criterion met
 Total energy in the final basis set =     -544.2958803936

                    Orbital Energies (a.u.)
 --------------------------------------------------------------

 Alpha MOs
 -- Occupied --
-10.1879 -10.1863 -10.1860 -10.1855 -10.1842 -10.1835 -10.1818 -10.1783
-10.1764 -10.1764 -10.1757 -10.1754 -10.1685 -10.1679  -0.8671  -0.8130
 -0.7874  -0.7702  -0.7536  -0.7158  -0.7026  -0.6401  -0.6251  -0.6036
 -0.5843  -0.5631  -0.5324  -0.4930  -0.4800  -0.4681  -0.4465  -0.4387
 -0.4338  -0.4262  -0.4175  -0.4074  -0.4069  -0.3852  -0.3773  -0.3670
 -0.3566  -0.3527  -0.3473  -0.3406  -0.3350  -0.3258  -0.3155  -0.2877
 -0.2619  -0.2334  -0.2126

          Ground-State Mulliken Net Atomic Charges

     Atom                 Charge (a.u.)
  ----------------------------------------
      1 C                    -0.340899
      2 C                    -0.133009
      3 C                     0.118893
      4 C                    -0.258518
      5 C                     0.134456
      6 C                    -0.339442
      7 C                    -0.435933
      8 C                     0.088061
      9 C                    -0.152037
     10 C                    -0.319880
     11 C                    -0.251976
     12 C                     0.130572
     13 C                    -0.344958
     14 C                    -0.441891
     15 H                     0.140426
     16 H                     0.143774
     17 H                     0.133352
     18 H                     0.120480
     19 H                     0.148817
     20 H                     0.137343
     21 H                     0.149477
     22 H                     0.141110
     23 H                     0.149054
     24 H                     0.139917
     25 H                     0.147498
     26 H                     0.141534
     27 H                     0.117943
     28 H                     0.141338
     29 H                     0.143171
     30 H                     0.150413
     31 H                     0.140771
     32 H                     0.160143
  ----------------------------------------
  Sum of atomic charges =     0.000000

                    Cartesian Multipole Moments
 -----------------------------------------------------------------
    Charge (ESU x 10^10)
                 0.0000
    Dipole Moment (Debye)
         X      -0.0406      Y      -0.1918      Z       0.1147
       Tot       0.2271
    Quadrupole Moments (Debye-Ang)
        XX     -80.6728     XY       1.3784     YY     -82.0779
        XZ       2.1793     YZ      -2.6872     ZZ     -86.0308

 Total job time:  44.53s(wall), 44.40s(cpu)
        *  Thank you very much for using Q-Chem.  Have a nice day.  *
