 Q-Chem 5.2, Q-Chem, Inc., Pleasanton, CA (2019)
 Q-Chem 5.2.1 for Intel X86 EM64T Linux

User input:
--------------------------------------------------------------
$molecule
0 1
C        -4.39452582080000   -0.02986548480000   -0.13334698250000
C        -3.25179074480000    0.64628788420000   -0.11961096300000
C        -1.91056032720000    0.08462549050000   -0.02924030340000
C        -1.65355556340000   -1.28656851390000    0.04715921140000
C        -0.36380015260000   -1.76040187330000    0.15361959250000
C         0.73421274960000   -0.89968868130000    0.16901549470000
C         2.08340777030000   -1.43988640490000    0.36007609470000
C         2.51565572220000   -2.57781365060000   -0.16851050880000
C         0.48700902870000    0.47889554260000    0.06552820920000
C         1.56388839520000    1.51085441760000    0.00359211770000
O         1.43957069810000    2.61180532560000    0.46468232750000
O         2.68987270160000    1.16592315030000   -0.65172470440000
C        -0.81726456710000    0.94802924690000   -0.01396041290000
H        -5.34131289380000    0.47734883070000   -0.20171022100000
H        -4.44088213830000   -1.10394585270000   -0.07679841520000
H        -3.27957124380000    1.72718572130000   -0.17687415850000
H        -2.47122910120000   -1.99007437360000    0.03857177680000
H        -0.19177905670000   -2.82171356350000    0.25486698720000
H         2.74084311230000   -0.85876411570000    0.99623205530000
H         1.89958708470000   -3.17467090740000   -0.82080295820000
H         3.50855609900000   -2.94701164400000    0.02142076160000
H         2.66289424430000    0.25424820150000   -0.97679348760000
H        -0.96631441460000    2.01649900400000   -0.07306454430000
$end

$rem
BASIS = 6-31G*
GUI = 2
METHOD = B3LYP
PRINT_ORBITALS false
MOLDEN_FORMAT false
--------------------------------------------------------------

             Standard Nuclear Orientation (Angstroms)
    I     Atom           X                Y                Z
 ----------------------------------------------------------------
    1      C       4.3612103409    -0.1329540079     0.1254107975
    2      C       3.2420880391     0.5816197707     0.1125617031
    3      C       1.8825086707     0.0658615981     0.0227397564
    4      C       1.5790467580    -1.2957848775    -0.0540135832
    5      C       0.2738864047    -1.7255065258    -0.1599222329
    6      C      -0.7942730842    -0.8279974299    -0.1743892683
    7      C      -2.1611387895    -1.3219943776    -0.3648888663
    8      C      -2.6314895684    -2.4447888705     0.1635268578
    9      C      -0.5003407414     0.5413574778    -0.0705399792
   10      C      -1.5415212426     1.6092662754    -0.0076246948
   11      O      -1.3801417036     2.7055367137    -0.4683846581
   12      O      -2.6782097931     1.3025199333     0.6481986011
   13      C       0.8191550334     0.9658994767     0.0083870627
   14      H       5.3247128800     0.3417904713     0.1934269159
   15      H       4.3710348824    -1.2079673959     0.0684460759
   16      H       3.3065894466     1.6609288726     0.1702019229
   17      H       2.3723633801    -2.0266549111    -0.0461405803
   18      H       0.0658685990    -2.7803258275    -0.2614585783
   19      H      -2.7988098571    -0.7186389276    -1.0004646372
   20      H      -2.0356868228    -3.0624716404     0.8152566137
   21      H      -3.6364586861    -2.7799842650    -0.0259812526
   22      H      -2.6820275735     0.3903305103     0.9729210123
   23      H       1.0044348013     2.0286688802     0.0677956460
 ----------------------------------------------------------------

    9    -575.6051316453      6.34e-06  Convergence criterion met
 Total energy in the final basis set =     -575.6051316453

                    Orbital Energies (a.u.)
 --------------------------------------------------------------

 Alpha MOs
 -- Occupied --
-19.1910 -19.1290 -10.3164 -10.2192 -10.2132 -10.2129 -10.2103 -10.2055
-10.2052 -10.2048 -10.2027 -10.2000 -10.1905  -1.1007  -1.0177  -0.8867
 -0.8275  -0.7876  -0.7727  -0.7347  -0.6607  -0.6430  -0.6205  -0.5898
 -0.5846  -0.5328  -0.5044  -0.4947  -0.4832  -0.4524  -0.4505  -0.4410
 -0.4351  -0.4282  -0.4071  -0.3937  -0.3901  -0.3766  -0.3595  -0.3536
 -0.3294  -0.3117  -0.2891  -0.2780  -0.2615  -0.2316

          Ground-State Mulliken Net Atomic Charges

     Atom                 Charge (a.u.)
  ----------------------------------------
      1 C                    -0.351486
      2 C                    -0.109287
      3 C                     0.180067
      4 C                    -0.172736
      5 C                    -0.186843
      6 C                     0.111204
      7 C                    -0.201617
      8 C                    -0.330872
      9 C                     0.011216
     10 C                     0.528814
     11 O                    -0.441430
     12 O                    -0.574265
     13 C                    -0.242252
     14 H                     0.151623
     15 H                     0.144946
     16 H                     0.138202
     17 H                     0.135693
     18 H                     0.137974
     19 H                     0.173860
     20 H                     0.155727
     21 H                     0.159349
     22 H                     0.416855
     23 H                     0.165258
  ----------------------------------------
  Sum of atomic charges =     0.000000

                    Cartesian Multipole Moments
 -----------------------------------------------------------------
    Charge (ESU x 10^10)
                 0.0000
    Dipole Moment (Debye)
         X       1.3245      Y      -4.5057      Z       0.9701
       Tot       4.7955
    Quadrupole Moments (Debye-Ang)
        XX     -68.0803     XY       9.6528     YY     -79.1331
        XZ      -0.4114     YZ       1.0826     ZZ     -77.0328

 Total job time:  33.19s(wall), 31.77s(cpu)
        *  Thank you very much for using Q-Chem.  Have a nice day.  *
