 Q-Chem 5.2, Q-Chem, Inc., Pleasanton, CA (2019)
 Q-Chem 5.2.1 for Intel X86 EM64T Linux

User input:
--------------------------------------------------------------
$molecule
0 1
C        -0.01233448470000    3.84576229680000   -0.05389456650000
C        -1.00339682590000    2.96725752520000    0.03524688110000
C        -0.88206360490000    1.51287761660000    0.02299888300000
C        -2.05009970900000    0.74835012010000    0.01461093230000
C        -1.97084582320000   -0.63213392150000   -0.00022965720000
Cl       -3.42544507810000   -1.56897126290000   -0.01271543640000
C        -0.74933907140000   -1.27893897930000   -0.00410086030000
C         0.42935649330000   -0.52871047710000    0.00760800040000
C         1.68959675660000   -1.25709114650000    0.00521890290000
C         2.92268589490000   -0.77274207790000    0.00016001200000
F         3.30307231490000    0.49849513080000   -0.00381604970000
F         4.00574876370000   -1.54495964000000   -0.00261857650000
C         0.34929620350000    0.86110080040000    0.02198241680000
H        -0.20506010200000    4.90459329460000   -0.03851177710000
H         1.02025237010000    3.55774743270000   -0.14850089270000
H        -2.02013696050000    3.33000650100000    0.11833033900000
H        -3.01518047960000    1.23112716340000    0.01727957410000
H        -0.71020919670000   -2.35670137880000   -0.01473556670000
H         1.62228134600000   -2.33528022150000    0.00572893400000
H         1.25048442610000    1.44823276020000    0.03787840740000
$end

$rem
BASIS = 6-31G*
GUI = 2
METHOD = B3LYP
PRINT_ORBITALS false
MOLDEN_FORMAT false
--------------------------------------------------------------

             Standard Nuclear Orientation (Angstroms)
    I     Atom           X                Y                Z
 ----------------------------------------------------------------
    1      C      -0.0660439931    -3.7816549689     0.0523621320
    2      C      -1.0395123558    -2.8836245639    -0.0360806965
    3      C      -0.8893451912    -1.4319432235    -0.0232826076
    4      C      -2.0419809184    -0.6443970079    -0.0141815235
    5      C      -1.9353499674     0.7342367569     0.0011935677
    6      Cl     -3.3710725647     1.6997423345     0.0145612295
    7      C      -0.7012503093     1.3566793276     0.0049075671
    8      C       0.4623253444     0.5832191912    -0.0075122764
    9      C       1.7367687842     1.2864534885    -0.0052605169
   10      C       2.9600077694     0.7777343809    -0.0008231339
   11      F       3.3151003251    -0.5008006718     0.0025046822
   12      F       4.0581785153     1.5283118091     0.0018969366
   13      C       0.3547032601    -0.8047241676    -0.0224247127
   14      H      -0.2797431835    -4.8364476277     0.0366147908
   15      H       0.9720853458    -3.5142214923     0.1467302560
   16      H      -2.0632768862    -3.2260965879    -0.1189618207
   17      H      -3.0164504920    -1.1079316057    -0.0167144679
   18      H      -0.6407426347     2.4334488180     0.0159673945
   19      H       1.6908568495     2.3657659539    -0.0053086155
   20      H       1.2440605010    -1.4096126616    -0.0388698019
 ----------------------------------------------------------------

    9   -1045.1109540332      6.69e-06  Convergence criterion met
 Total energy in the final basis set =    -1045.1109540332

                    Orbital Energies (a.u.)
 --------------------------------------------------------------

 Alpha MOs
 -- Occupied --
******** -24.7530 -24.7421 -10.3661 -10.2534 -10.2201 -10.2115 -10.2099
-10.2042 -10.2017 -10.1990 -10.1959 -10.1890  -9.4678  -7.2317  -7.2222
 -7.2216  -1.2944  -1.2330  -0.9035  -0.8575  -0.8240  -0.7848  -0.7460
 -0.7317  -0.6577  -0.6406  -0.6153  -0.5839  -0.5602  -0.5374  -0.5275
 -0.5153  -0.4868  -0.4733  -0.4489  -0.4483  -0.4456  -0.4382  -0.4248
 -0.4150  -0.4091  -0.3905  -0.3638  -0.3577  -0.3525  -0.3284  -0.3153
 -0.2783  -0.2362  -0.2306

          Ground-State Mulliken Net Atomic Charges

     Atom                 Charge (a.u.)
  ----------------------------------------
      1 C                    -0.348888
      2 C                    -0.115165
      3 C                     0.182938
      4 C                    -0.202352
      5 C                    -0.067871
      6 Cl                   -0.013432
      7 C                    -0.198593
      8 C                     0.201683
      9 C                    -0.300144
     10 C                     0.550532
     11 F                    -0.231130
     12 F                    -0.244245
     13 C                    -0.252648
     14 H                     0.149899
     15 H                     0.150343
     16 H                     0.132903
     17 H                     0.150377
     18 H                     0.150285
     19 H                     0.164711
     20 H                     0.140796
  ----------------------------------------
  Sum of atomic charges =     0.000000

                    Cartesian Multipole Moments
 -----------------------------------------------------------------
    Charge (ESU x 10^10)
                 0.0000
    Dipole Moment (Debye)
         X       0.6122      Y      -0.7518      Z      -0.0122
       Tot       0.9696
    Quadrupole Moments (Debye-Ang)
        XX     -83.4764     XY       3.6680     YY     -72.7806
        XZ       0.2332     YZ       0.0288     ZZ     -82.4095

 Total job time:  28.52s(wall), 28.42s(cpu)
        *  Thank you very much for using Q-Chem.  Have a nice day.  *
