 Q-Chem 5.2, Q-Chem, Inc., Pleasanton, CA (2019)
 Q-Chem 5.2.1 for Intel X86 EM64T Linux

User input:
--------------------------------------------------------------
$molecule
0 1
C         4.81875300080000   -0.77269765800000    1.06055017260000
C         3.66597369540000   -0.22208200570000    1.41789009840000
C         2.49784440580000   -0.05748572780000    0.57290642800000
C         1.21468443230000   -0.10189313980000    1.05555840110000
N         0.31163825730000   -0.02906797320000    0.03306851960000
Si       -1.46133439110000   -0.04586387560000    0.10066342770000
C        -1.93199965270000   -0.14370417760000    1.96306956260000
C        -1.65263081030000    1.16292123710000    2.70742623240000
C        -3.39370757380000   -0.53088353140000    2.18026514600000
C        -2.08238395900000    1.59183933950000   -0.71297067000000
C        -1.12495068920000    2.75470022870000   -0.44184152720000
C        -2.29773854630000    1.47890400020000   -2.22307534440000
C        -1.91550360460000   -1.61291845650000   -0.92381119640000
C        -1.24268749840000   -2.85874343970000   -0.34512259570000
C        -3.41190399900000   -1.86950278390000   -1.09582105770000
C         1.03721431480000    0.06754613980000   -1.12155864640000
C         2.38156262330000    0.07048813200000   -0.85270031200000
C         3.39290835980000    0.27063040740000   -1.87414503550000
C         4.56084140210000    0.87704942220000   -1.70765732660000
H         5.62759981070000   -0.89017765000000    1.76201771340000
H         4.99422944980000   -1.12640053660000    0.05935713680000
H         3.51801910860000    0.08816562450000    2.44654618510000
H         0.89090861440000   -0.22124408880000    2.06959035490000
H        -1.32003328260000   -0.92553111090000    2.42464252400000
H        -2.31914872960000    1.94760361390000    2.35760267330000
H        -0.62666677230000    1.49192304000000    2.56549616250000
H        -1.82259734770000    1.03157432570000    3.77564798690000
H        -4.05935554960000    0.14966847810000    1.65474945400000
H        -3.63950320250000   -0.49206094060000    3.24078014610000
H        -3.58737298500000   -1.54011087750000    1.83062143150000
H        -3.04987102180000    1.84813007050000   -0.26734605030000
H        -0.15040452410000    2.55438045350000   -0.88092376110000
H        -0.98744346410000    2.91989395700000    0.62205798780000
H        -1.51347176800000    3.67230251620000   -0.88150814710000
H        -1.35971405020000    1.26849605900000   -2.73021411380000
H        -2.68434410060000    2.41800556670000   -2.61692751400000
H        -3.00439872060000    0.69265502240000   -2.47115027990000
H        -1.49887638990000   -1.45941601220000   -1.92546804220000
H        -1.62143566480000   -3.07327498790000    0.65163928690000
H        -0.16613566830000   -2.72257526040000   -0.27978136470000
H        -1.44001127000000   -3.72453518210000   -0.97536902320000
H        -3.85738899740000   -2.20338712190000   -0.16353834310000
H        -3.57717855540000   -2.64773722120000   -1.83970257750000
H        -3.93808552240000   -0.97483307200000   -1.41698653890000
H         0.54585801580000    0.14874418800000   -2.07084116390000
H         3.09887873660000   -0.06203960970000   -2.86373975830000
H         4.87424413610000    1.25345942270000   -0.74928787000000
H         5.24369040730000    1.01893506050000   -2.52844079750000
$end

$rem
BASIS = 6-31G*
GUI = 2
METHOD = B3LYP
PRINT_ORBITALS false
MOLDEN_FORMAT false
--------------------------------------------------------------

             Standard Nuclear Orientation (Angstroms)
    I     Atom           X                Y                Z
 ----------------------------------------------------------------
    1      C      -4.7394465132    -1.6558516428     0.5327784311
    2      C      -3.5887117458    -1.7369843824    -0.1221998280
    3      C      -2.4977265272    -0.7824615543    -0.0569863447
    4      C      -1.1805396761    -1.1440005248    -0.1824169436
    5      N      -0.3630818006    -0.0698568375     0.0279622798
    6      Si      1.4087711058     0.0147631866    -0.0127797796
    7      C       2.0253038105    -1.7479973117    -0.4734510012
    8      C       1.7451524059    -2.1034884942    -1.9344523653
    9      C       3.5154224425    -1.9402374973    -0.1972952594
   10      C       1.8905558362     1.3184113033    -1.3537346233
   11      C       0.9051438363     1.3135247315    -2.5247915125
   12      C       1.9939593190     2.7438792503    -0.8088520960
   13      C       1.8532640601     0.5770439152     1.7754440278
   14      C       1.2840914533    -0.3936834785     2.8114810778
   15      C       3.3420716068     0.7966265561     2.0397782906
   16      C      -1.1789864116     0.9957463310     0.2882474070
   17      C      -2.4974088236     0.6236093871     0.2349344424
   18      C      -3.5923818394     1.5674253387     0.3632777183
   19      C      -4.7703033724     1.4829076126    -0.2407813733
   20      H      -5.4857622028    -2.4287397090     0.4569605588
   21      H      -4.9752464636    -0.8191284944     1.1672687476
   22      H      -3.3762422511    -2.6148566444    -0.7225951160
   23      H      -0.7746196743    -2.1170489074    -0.3714725700
   24      H       1.4867106500    -2.4674653886     0.1519199961
   25      H       2.3465492466    -1.4849803111    -2.5963576145
   26      H       0.6974638706    -1.9620092030    -2.1860887726
   27      H       2.0025908399    -3.1450176627    -2.1246648664
   28      H       4.1071490896    -1.1844790135    -0.7082685435
   29      H       3.8400868785    -2.9185690988    -0.5495381181
   30      H       3.7271173224    -1.8823325713     0.8657800682
   31      H       2.8768624617     1.0518231545    -1.7492437339
   32      H      -0.0902252231     1.5894687052    -2.1845609914
   33      H       0.8425734690     0.3352791246    -2.9908385750
   34      H       1.2167205844     2.0320237085    -3.2817119002
   35      H       1.0301858498     3.0849461971    -0.4398463692
   36      H       2.3061799921     3.4247650246    -1.5996794804
   37      H       2.7143168683     2.8140584449     0.0006274359
   38      H       1.3542690868     1.5401230998     1.9301701536
   39      H       1.7477460734    -1.3730545049     2.7173269738
   40      H       0.2107007965    -0.5100023294     2.6846839359
   41      H       1.4713407526    -0.0264550824     3.8193618130
   42      H       3.8726402758    -0.1500433625     2.0771901544
   43      H       3.4846896858     1.2947425991     2.9978308597
   44      H       3.8009164831     1.4074783116     1.2672696062
   45      H      -0.7663196948     1.9667912660     0.4778241690
   46      H      -3.3606112116     2.4399411859     0.9644590116
   47      H      -5.0257536052     0.6511384900    -0.8742504592
   48      H      -5.5200119952     2.2470989834    -0.1222557047
 ----------------------------------------------------------------

    8   -1009.5107318261      9.83e-06  Convergence criterion met
 Total energy in the final basis set =    -1009.5107318261

                    Orbital Energies (a.u.)
 --------------------------------------------------------------

 Alpha MOs
 -- Occupied --
-66.1423 -14.3526 -10.1948 -10.1948 -10.1849 -10.1818 -10.1810 -10.1796
-10.1792 -10.1778 -10.1774 -10.1751 -10.1743 -10.1728 -10.1706 -10.1676
-10.1662 -10.1581 -10.1570  -5.2852  -3.6460  -3.6431  -3.6428  -0.9645
 -0.8054  -0.7940  -0.7847  -0.7815  -0.7650  -0.7198  -0.7068  -0.6920
 -0.6858  -0.6829  -0.6123  -0.6035  -0.5803  -0.5789  -0.5754  -0.5561
 -0.5165  -0.5018  -0.4830  -0.4645  -0.4612  -0.4518  -0.4480  -0.4421
 -0.4383  -0.4307  -0.4131  -0.4121  -0.4097  -0.4039  -0.3994  -0.3956
 -0.3900  -0.3870  -0.3852  -0.3814  -0.3791  -0.3499  -0.3483  -0.3455
 -0.3426  -0.3402  -0.3374  -0.3350  -0.3321  -0.3265  -0.2942  -0.2757
 -0.2719  -0.2673  -0.1967  -0.1950

          Ground-State Mulliken Net Atomic Charges

     Atom                 Charge (a.u.)
  ----------------------------------------
      1 C                    -0.350603
      2 C                    -0.125911
      3 C                     0.048182
      4 C                    -0.053795
      5 N                    -0.510886
      6 Si                    0.902174
      7 C                    -0.291727
      8 C                    -0.464159
      9 C                    -0.462752
     10 C                    -0.292444
     11 C                    -0.458975
     12 C                    -0.461045
     13 C                    -0.283047
     14 C                    -0.460696
     15 C                    -0.464259
     16 C                    -0.054431
     17 C                     0.050293
     18 C                    -0.129163
     19 C                    -0.348048
     20 H                     0.129176
     21 H                     0.150502
     22 H                     0.116320
     23 H                     0.140921
     24 H                     0.148288
     25 H                     0.150571
     26 H                     0.160175
     27 H                     0.142955
     28 H                     0.148807
     29 H                     0.145583
     30 H                     0.154606
     31 H                     0.138217
     32 H                     0.165800
     33 H                     0.151363
     34 H                     0.137149
     35 H                     0.149417
     36 H                     0.143408
     37 H                     0.150426
     38 H                     0.146957
     39 H                     0.142540
     40 H                     0.173051
     41 H                     0.140479
     42 H                     0.149584
     43 H                     0.144357
     44 H                     0.148303
     45 H                     0.144147
     46 H                     0.116893
     47 H                     0.151462
     48 H                     0.129837
  ----------------------------------------
  Sum of atomic charges =     0.000000

                    Cartesian Multipole Moments
 -----------------------------------------------------------------
    Charge (ESU x 10^10)
                 0.0000
    Dipole Moment (Debye)
         X       3.2393      Y      -0.0511      Z      -0.0903
       Tot       3.2410
    Quadrupole Moments (Debye-Ang)
        XX    -129.4504     XY      -0.7413     YY    -121.8352
        XZ      -0.4887     YZ       2.9315     ZZ    -127.9284

 Total job time:  111.07s(wall), 110.65s(cpu)
        *  Thank you very much for using Q-Chem.  Have a nice day.  *
