 Q-Chem 5.2, Q-Chem, Inc., Pleasanton, CA (2019)
 Q-Chem 5.2.1 for Intel X86 EM64T Linux

User input:
--------------------------------------------------------------
$molecule
0 1
C        -5.07021841820000   -0.35951163520000    1.97584984350000
C        -4.40569760370000    0.56889722420000    1.29324708270000
C        -3.26886135150000    0.31909251900000    0.45166617710000
C        -2.55713419670000    1.24067487640000   -0.27113615080000
C        -1.49064554200000    0.69855101340000   -1.01382868680000
C        -0.58042600000000    1.56258747100000   -1.82991917920000
C         0.48543485380000    2.23795824150000   -0.95515667880000
C         1.45884385400000    1.23480494520000   -0.34313782150000
C         2.51573037580000    1.92294607180000    0.51752756010000
C         3.41781096610000    0.93945046370000    1.26349848540000
C         4.29864937030000    0.10087771560000    0.33991351560000
C         5.27891948290000   -0.76844142330000    1.12412896230000
C         6.14712962890000   -1.61671363740000    0.20291610560000
C        -1.38027884620000   -0.66620292920000   -0.85177329660000
C        -0.42235953020000   -1.55954944480000   -1.44237108310000
C        -0.33496615490000   -2.86230645030000   -1.18622481930000
S        -2.61260656720000   -1.27256826060000    0.22187015410000
H        -5.91703005360000   -0.11269163040000    2.59116058930000
H        -4.78215215770000   -1.39709222220000    1.93614420030000
H        -4.70830017590000    1.60764258250000    1.34362392960000
H        -2.79894979620000    2.28988478150000   -0.27306382110000
H        -1.17908113900000    2.33741736160000   -2.31526885040000
H        -0.09141978310000    0.97863642230000   -2.61061221480000
H        -0.00954524080000    2.79590065620000   -0.15679931230000
H         1.04102359670000    2.95277755460000   -1.56693620240000
H         1.94621554640000    0.67872096820000   -1.14562223270000
H         0.90578390580000    0.52053720760000    0.27068232180000
H         2.01171443470000    2.55771650650000    1.25100524580000
H         3.13022677300000    2.57165102330000   -0.11178281330000
H         2.79919366510000    0.27540533240000    1.87192208730000
H         4.06129880280000    1.50424069660000    1.94316894100000
H         4.85810370460000    0.76357927130000   -0.32509457780000
H         3.67365848240000   -0.54498232490000   -0.27920724370000
H         4.71977120560000   -1.42124455400000    1.79843483940000
H         5.91819961020000   -0.12943259690000    1.73796803120000
H         5.52926906750000   -2.27779780450000   -0.40117797410000
H         6.83845978820000   -2.22619787200000    0.78034988770000
H         6.72521834220000   -0.98314874460000   -0.46658669600000
H         0.26660594380000   -1.10286916810000   -2.14021783630000
H        -1.00170056480000   -3.34538623010000   -0.49123989500000
H         0.40412921000000   -3.48303414650000   -1.66091641760000
$end

$rem
BASIS = 6-31G*
GUI = 2
METHOD = B3LYP
PRINT_ORBITALS false
MOLDEN_FORMAT false
--------------------------------------------------------------

             Standard Nuclear Orientation (Angstroms)
    I     Atom           X                Y                Z
 ----------------------------------------------------------------
    1      C       5.1920777859    -0.4456512292    -1.9658460730
    2      C       4.5367330299     0.4951353775    -1.2913675607
    3      C       3.3973931826     0.2638608884    -0.4478782017
    4      C       2.6947727968     1.1986352937     0.2668484553
    5      C       1.6228869591     0.6735191793     1.0139778644
    6      C       0.7212040768     1.5535231533     1.8224475867
    7      C      -0.3378201065     2.2318892587     0.9417196628
    8      C      -1.3210728495     1.2332170478     0.3381663861
    9      C      -2.3709978308     1.9243845564    -0.5285730430
   10      C      -3.2827176952     0.9435096117    -1.2662293692
   11      C      -4.1719206217     0.1216834702    -0.3356329513
   12      C      -5.1606898622    -0.7445780136    -1.1125277683
   13      C      -6.0373611375    -1.5762484261    -0.1842177262
   14      C       1.4990034911    -0.6914153514     0.8636359408
   15      C       0.5322123763    -1.5701079000     1.4617141162
   16      C       0.4319252054    -2.8740873639     1.2167562280
   17      S       2.7253596735    -1.3191787682    -0.2045327691
   18      H       6.0413557532    -0.2125398884    -2.5831008110
   19      H       4.8937293965    -1.4799440252    -1.9172782458
   20      H       4.8496296040     1.5303569521    -1.3506135586
   21      H       2.9469841255     2.2453729624     0.2598040463
   22      H       1.3274687811     2.3265199405     2.3012301192
   23      H       0.2263536671     0.9811823115     2.6080407104
   24      H       0.1627476017     2.7780126374     0.1386874458
   25      H      -0.8863500254     2.9574155798     1.5472328109
   26      H      -1.8140144947     0.6889119532     1.1453109113
   27      H      -0.7750659317     0.5082497982    -0.2693925068
   28      H      -1.8606388994     2.5477973295    -1.2673865273
   29      H      -2.9790900368     2.5845371540     0.0950277101
   30      H      -2.6706589817     0.2681567953    -1.8688115507
   31      H      -3.9205054724     1.5087921414    -1.9508452792
   32      H      -4.7248380909     0.7955923400     0.3235539538
   33      H      -3.5534272011    -0.5249988222     0.2891287776
   34      H      -4.6079793449    -1.4086661857    -1.7810972284
   35      H      -5.7935402927    -0.1045592241    -1.7319517309
   36      H      -5.4261472547    -2.2382119598     0.4256474031
   37      H      -6.7346472044    -2.1837860266    -0.7565186952
   38      H      -6.6092015304    -0.9312502552     0.4797107036
   39      H      -0.1522567049    -1.1006357791     2.1554852564
   40      H       1.0939021647    -3.3697116198     0.5260696174
   41      H      -0.3133372053    -3.4833511349     1.6966296919
 ----------------------------------------------------------------

    9   -1022.3137347385      1.95e-06  Convergence criterion met
 Total energy in the final basis set =    -1022.3137347385

                    Orbital Energies (a.u.)
 --------------------------------------------------------------

 Alpha MOs
 -- Occupied --
-88.8964 -10.2159 -10.2126 -10.1970 -10.1951 -10.1922 -10.1875 -10.1857
-10.1810 -10.1792 -10.1789 -10.1715 -10.1707 -10.1702 -10.1694 -10.1692
-10.1654  -7.9585  -5.9227  -5.9190  -5.9151  -0.8888  -0.8164  -0.8050
 -0.7929  -0.7732  -0.7573  -0.7258  -0.7081  -0.6851  -0.6456  -0.6257
 -0.5960  -0.5818  -0.5689  -0.5619  -0.5452  -0.5163  -0.4957  -0.4743
 -0.4664  -0.4591  -0.4415  -0.4359  -0.4270  -0.4247  -0.4133  -0.4122
 -0.3959  -0.3907  -0.3848  -0.3818  -0.3705  -0.3645  -0.3579  -0.3524
 -0.3451  -0.3365  -0.3300  -0.3259  -0.3206  -0.3203  -0.3149  -0.3069
 -0.2987  -0.2671  -0.2429  -0.1960

          Ground-State Mulliken Net Atomic Charges

     Atom                 Charge (a.u.)
  ----------------------------------------
      1 C                    -0.374128
      2 C                    -0.055251
      3 C                    -0.134291
      4 C                    -0.178059
      5 C                     0.158066
      6 C                    -0.348127
      7 C                    -0.251744
      8 C                    -0.261608
      9 C                    -0.254641
     10 C                    -0.254126
     11 C                    -0.248953
     12 C                    -0.248477
     13 C                    -0.441245
     14 C                    -0.209121
     15 C                    -0.049571
     16 C                    -0.378823
     17 S                     0.236286
     18 H                     0.146430
     19 H                     0.157200
     20 H                     0.137256
     21 H                     0.132278
     22 H                     0.143948
     23 H                     0.143237
     24 H                     0.135505
     25 H                     0.131368
     26 H                     0.129618
     27 H                     0.150497
     28 H                     0.126317
     29 H                     0.124678
     30 H                     0.130420
     31 H                     0.124988
     32 H                     0.124035
     33 H                     0.133955
     34 H                     0.131707
     35 H                     0.129498
     36 H                     0.140788
     37 H                     0.140779
     38 H                     0.140477
     39 H                     0.137425
     40 H                     0.157085
     41 H                     0.144323
  ----------------------------------------
  Sum of atomic charges =     0.000000

                    Cartesian Multipole Moments
 -----------------------------------------------------------------
    Charge (ESU x 10^10)
                 0.0000
    Dipole Moment (Debye)
         X      -0.3715      Y       1.1210      Z       0.2691
       Tot       1.2112
    Quadrupole Moments (Debye-Ang)
        XX    -112.4039     XY       3.3744     YY    -108.7907
        XZ      -4.6424     YZ       1.1281     ZZ    -112.9782

 Total job time:  78.54s(wall), 78.27s(cpu)
        *  Thank you very much for using Q-Chem.  Have a nice day.  *
