 Q-Chem 5.4, Q-Chem, Inc., Pleasanton, CA (2021)
 Q-Chem 5.4.2 for Intel X86 EM64T Linux

User input:
--------------------------------------------------------------
$molecule
0 1
C           -4.31508283830000        2.33038673570000        0.02794660700000
C           -3.01237063300000        2.33209025510000       -0.22936206130000
C           -2.10342463410000        1.19712055360000       -0.14249057650000
C           -2.51359757540000       -0.09064944850000        0.19915569530000
C           -1.61607493500000       -1.13849158130000        0.24861381370000
C           -0.26598847230000       -0.93809704640000       -0.02397099360000
O            0.66614491060000       -1.92180134690000       -0.05483066930000
C            0.28204160470000       -3.23896939080000        0.25486035220000
C            0.17652840050000        0.36132090340000       -0.33823662380000
C            1.58043128960000        0.65637741300000       -0.61734517150000
C            2.63263813910000        0.15028685300000        0.00287879020000
F            2.65157199060000       -0.68554578710000        1.02929630300000
F            3.88849004280000        0.47776166100000       -0.30945388800000
C           -0.74993295600000        1.39080158120000       -0.41370980420000
H           -4.90366204470000        3.22670317260000       -0.06524752830000
H           -4.84804735290000        1.44910545860000        0.34059761530000
H           -2.54204745220000        3.25840836330000       -0.53640140720000
H           -3.55088418200000       -0.28713788540000        0.41925534030000
H           -1.97888662720000       -2.12263389370000        0.49987883250000
H            1.19162753080000       -3.83220079650000        0.17804905480000
H           -0.46051997960000       -3.61908583360000       -0.45436762870000
H           -0.11099350320000       -3.31320663150000        1.27331338040000
H            1.78650619630000        1.38806204080000       -1.38467387020000
H           -0.39982930250000        2.37959641400000       -0.67453951390000
$end

$rem
BASIS = 6-31G*
GUI = 2
METHOD = B3LYP
PRINT_ORBITALS false
MOLDEN_FORMAT false
$end
--------------------------------------------------------------

             Standard Nuclear Orientation (Angstroms)
    I     Atom           X                Y                Z
 ----------------------------------------------------------------
    1      C       4.7677135921     0.6025866575    -0.2516259317
    2      C       3.5637105276     1.1181431660    -0.0328844181
    3      C       2.3001485548     0.3951816202     0.0183352176
    4      C       2.2005612129    -0.9879124153    -0.1246642422
    5      C       0.9805609851    -1.6296075217    -0.0485527100
    6      C      -0.1942948851    -0.9118263872     0.1556477573
    7      O      -1.4208053695    -1.4704030085     0.3011238849
    8      C      -1.5545415767    -2.8664144172     0.1932243572
    9      C      -0.1212663489     0.4899177731     0.2690109757
   10      C      -1.3113172622     1.3153838443     0.4646837547
   11      C      -2.4922143247     1.1469894830    -0.1054654702
   12      F      -2.8439343819     0.2388758489    -1.0021985591
   13      F      -3.5317871583     1.9527668490     0.1224964033
   14      C       1.1196288753     1.1078425305     0.2220498364
   15      H       5.6460480652     1.2243873692    -0.2712782203
   16      H       4.9320430793    -0.4476041127    -0.4206042795
   17      H       3.4739896080     2.1859932549     0.1258248638
   18      H       3.0873472596    -1.5800131404    -0.2860405182
   19      H       0.9506189102    -2.7032744329    -0.1467635070
   20      H      -2.6157765995    -3.0676679111     0.3290451606
   21      H      -0.9838954495    -3.3867027050     0.9694676441
   22      H      -1.2438608030    -3.2240634365    -0.7930813613
   23      H      -1.2140681323     2.1731818064     1.1137968854
   24      H       1.1633547790     2.1824970956     0.3294068954
 ----------------------------------------------------------------

    9    -700.0333316346      4.49e-06  Convergence criterion met
 Total energy in the final basis set =     -700.0333316346

                    Orbital Energies (a.u.)
 --------------------------------------------------------------

 Alpha MOs
 -- Occupied --
-24.7282 -24.7240 -19.1821 -10.3467 -10.2501 -10.2433 -10.2000 -10.1938
-10.1894 -10.1890 -10.1885 -10.1882 -10.1871 -10.1749  -1.2729  -1.2120
 -1.0748  -0.8672  -0.8098  -0.7821  -0.7416  -0.7412  -0.6950  -0.6403
 -0.6125  -0.6060  -0.5685  -0.5562  -0.5402  -0.5169  -0.5061  -0.4824
 -0.4751  -0.4737  -0.4529  -0.4404  -0.4280  -0.4263  -0.4247  -0.4120
 -0.4014  -0.3882  -0.3829  -0.3652  -0.3467  -0.3383  -0.3263  -0.2891
 -0.2736  -0.2305  -0.2020

          Ground-State Mulliken Net Atomic Charges

     Atom                 Charge (a.u.)
  ----------------------------------------
      1 C                    -0.358949
      2 C                    -0.111157
      3 C                     0.183723
      4 C                    -0.190563
      5 C                    -0.194577
      6 C                     0.329976
      7 O                    -0.504256
      8 C                    -0.216447
      9 C                     0.130524
     10 C                    -0.315899
     11 C                     0.570026
     12 F                    -0.231873
     13 F                    -0.254351
     14 C                    -0.272895
     15 H                     0.141685
     16 H                     0.138666
     17 H                     0.124599
     18 H                     0.128011
     19 H                     0.132753
     20 H                     0.173184
     21 H                     0.152206
     22 H                     0.154313
     23 H                     0.163202
     24 H                     0.128101
  ----------------------------------------
  Sum of atomic charges =     0.000000

                    Cartesian Multipole Moments
 -----------------------------------------------------------------
    Charge (ESU x 10^10)
                 0.0000
    Dipole Moment (Debye)
         X       0.6975      Y      -1.6470      Z       0.2920
       Tot       1.8123
    Quadrupole Moments (Debye-Ang)
        XX     -80.6572     XY       3.5442     YY     -67.3367
        XZ      -1.1846     YZ       1.5254     ZZ     -82.0405

 Total job time:  69.96s(wall), 57.28s(cpu)
        *  Thank you very much for using Q-Chem.  Have a nice day.  *
