 Q-Chem 5.2, Q-Chem, Inc., Pleasanton, CA (2019)
 Q-Chem 5.2.1 for Intel X86 EM64T Linux

User input:
--------------------------------------------------------------
$molecule
0 1
C         3.97968001040000   -0.51460103810000    0.04521649570000
C         2.96199326690000    0.33021037000000   -0.06511907900000
C         1.54719317730000   -0.01622830510000   -0.03646431930000
C         1.06986025890000   -1.32789190320000    0.00206766790000
N        -0.21514326560000   -1.62299948500000    0.02941067830000
C        -1.09172476080000   -0.64991932810000    0.02105118690000
F        -2.36816263190000   -1.06179440870000    0.05089235940000
C        -0.77991435610000    0.71622520330000   -0.02041551080000
C        -1.73347017090000    1.81716810270000   -0.03499201600000
C        -3.05761490070000    1.74091799030000    0.03072797020000
C         0.58643918050000    0.99508806890000   -0.05179746910000
H         4.99790771720000   -0.16709396420000    0.01559574280000
H         3.84518619720000   -1.57469014310000    0.17215145270000
H         3.16259955520000    1.38851310590000   -0.18105234550000
H         1.73338147200000   -2.17962836560000    0.00562574390000
H        -1.26450748830000    2.79196671140000   -0.10453445140000
H        -3.59315842100000    0.81209634360000    0.10434025830000
H        -3.65825362790000    2.63470492490000    0.01276438620000
H         0.90556847780000    2.02846137320000   -0.08532544580000
$end

$rem
BASIS = 6-31G*
GUI = 2
METHOD = B3LYP
PRINT_ORBITALS false
MOLDEN_FORMAT false
--------------------------------------------------------------

             Standard Nuclear Orientation (Angstroms)
    I     Atom           X                Y                Z
 ----------------------------------------------------------------
    1      C       3.9578168621     0.2366001708     0.0681206091
    2      C       2.7922361246     0.8637806528    -0.0300259636
    3      C       1.4751479022     0.2410971822    -0.0233886372
    4      C       1.2695137610    -1.1400281323    -0.0228507636
    5      N       0.0693447144    -1.6864738291    -0.0150058315
    6      C      -0.9840295930    -0.9082179075    -0.0066225345
    7      F      -2.1524730448    -1.5673915027     0.0008130432
    8      C      -0.9514549691     0.4932891072    -0.0102388706
    9      C      -2.1057853012     1.3815771290    -0.0055156360
   10      C      -3.3882100321     1.0406473778     0.0459253581
   11      C       0.3316849303     1.0401804087    -0.0217807468
   12      H       4.8861312417     0.7811475289     0.0568598095
   13      H       4.0374535182    -0.8320158880     0.1666482782
   14      H       2.7776900596     1.9435557292    -0.1169873477
   15      H       2.0898917240    -1.8418561922    -0.0349103485
   16      H      -1.8408861235     2.4319125447    -0.0457451731
   17      H      -3.7275530039     0.0219375760     0.0907803420
   18      H      -4.1553240791     1.7966104926     0.0452444962
   19      H       0.4379229571     2.1169926041    -0.0259035136
 ----------------------------------------------------------------

    9    -502.3228278134      3.40e-06  Convergence criterion met
 Total energy in the final basis set =     -502.3228278134

                    Orbital Energies (a.u.)
 --------------------------------------------------------------

 Alpha MOs
 -- Occupied --
-24.7126 -14.3388 -10.3052 -10.2316 -10.2179 -10.2144 -10.2096 -10.2025
-10.2020 -10.1905 -10.1868  -1.2295  -0.9637  -0.8427  -0.8186  -0.7611
 -0.7410  -0.6657  -0.6448  -0.6045  -0.5746  -0.5518  -0.5162  -0.4932
 -0.4776  -0.4693  -0.4530  -0.4379  -0.4334  -0.3985  -0.3953  -0.3890
 -0.3758  -0.3583  -0.3305  -0.3212  -0.2743  -0.2556  -0.2283

          Ground-State Mulliken Net Atomic Charges

     Atom                 Charge (a.u.)
  ----------------------------------------
      1 C                    -0.350503
      2 C                    -0.115303
      3 C                     0.162211
      4 C                    -0.015152
      5 N                    -0.446777
      6 C                     0.454425
      7 F                    -0.261109
      8 C                     0.107317
      9 C                    -0.113931
     10 C                    -0.353460
     11 C                    -0.240082
     12 H                     0.150120
     13 H                     0.149599
     14 H                     0.131674
     15 H                     0.149733
     16 H                     0.132143
     17 H                     0.167652
     18 H                     0.145107
     19 H                     0.146336
  ----------------------------------------
  Sum of atomic charges =     0.000000

                    Cartesian Multipole Moments
 -----------------------------------------------------------------
    Charge (ESU x 10^10)
                 0.0000
    Dipole Moment (Debye)
         X       1.2166      Y       2.5748      Z       0.0042
       Tot       2.8478
    Quadrupole Moments (Debye-Ang)
        XX     -55.7555     XY      -2.8686     YY     -62.4272
        XZ      -0.0270     YZ      -0.3276     ZZ     -65.6722

 Total job time:  21.43s(wall), 21.35s(cpu)
        *  Thank you very much for using Q-Chem.  Have a nice day.  *
