 Q-Chem 5.2, Q-Chem, Inc., Pleasanton, CA (2019)
 Q-Chem 5.2.1 for Intel X86 EM64T Linux

User input:
--------------------------------------------------------------
$molecule
0 1
C         2.76506021130000    2.58615498590000   -0.11808639420000
C         2.54469273970000    1.28840723870000    0.05197969910000
C         1.25018563090000    0.61783276150000    0.02731398390000
C         0.03774495790000    1.29629626680000    0.01682146130000
C        -1.19880440050000    0.65626625080000   -0.00532495290000
C        -2.47654865180000    1.35783994110000   -0.01657006380000
C        -2.65638889070000    2.66989108030000    0.07407578110000
C        -1.19121834300000   -0.74185206210000   -0.01931629180000
F        -2.34704831340000   -1.42926946080000   -0.04328611910000
C         0.00127285790000   -1.44034533950000   -0.00231241720000
F         0.01005507280000   -2.79924153620000   -0.01016017480000
C         1.23127108100000   -0.78912888980000    0.02368808710000
O         2.38482581080000   -1.49324885890000    0.03846015300000
H         3.76265331140000    2.98797694910000   -0.08434476180000
H         1.97765068280000    3.29637852540000   -0.30401038320000
H         3.38086384220000    0.62229579060000    0.21259628290000
H         0.05579591210000    2.37239092730000    0.03060995650000
H        -3.34131857540000    0.71343205460000   -0.10253675530000
H        -1.84374416930000    3.36876752210000    0.17143658260000
H        -3.64442784360000    3.09533435460000    0.05708114990000
H         2.18528212630000   -2.44013865030000    0.03154319530000
$end

$rem
BASIS = 6-31G*
GUI = 2
METHOD = B3LYP
PRINT_ORBITALS false
MOLDEN_FORMAT false
--------------------------------------------------------------

             Standard Nuclear Orientation (Angstroms)
    I     Atom           X                Y                Z
 ----------------------------------------------------------------
    1      C      -2.5447938850    -2.6887981850    -0.1145564151
    2      C      -2.4223308265    -1.3780124021     0.0541947171
    3      C      -1.1817990470    -0.6122250650     0.0281593584
    4      C       0.0781239627    -1.1978164348     0.0175780643
    5      C       1.2631544319    -0.4668336131    -0.0058761959
    6      C       2.5899305183    -1.0705710062    -0.0172271359
    7      C       2.8677543316    -2.3653432332     0.0745126139
    8      C       1.1506809997     0.9267606034    -0.0211408482
    9      F       2.2516631818     1.6989390953    -0.0464146370
   10      C      -0.0908482684     1.5338283066    -0.0040781745
   11      F      -0.2015684696     2.8882271018    -0.0131627042
   12      C      -1.2685047625     0.7921858010     0.0232365670
   13      O      -2.4716306391     1.4077836056     0.0380395274
   14      H      -3.5094086010    -3.1643045376    -0.0798643464
   15      H      -1.7064111734    -3.3381177186    -0.3002915590
   16      H      -3.3060409231    -0.7763633554     0.2146912930
   17      H       0.1408709408    -2.2722185813     0.0323605601
   18      H       3.4038682561    -0.3631782350    -0.1042882821
   19      H       2.1098875265    -3.1231291644     0.1729871688
   20      H       3.8849205988    -2.7154707580     0.0573291697
   21      H      -2.3436986510     2.3669691016     0.0301405402
 ----------------------------------------------------------------

    9    -660.7201860806      3.73e-06  Convergence criterion met
 Total energy in the final basis set =     -660.7201860806

                    Orbital Energies (a.u.)
 --------------------------------------------------------------

 Alpha MOs
 -- Occupied --
-24.7282 -24.7220 -19.1993 -10.2847 -10.2806 -10.2691 -10.2075 -10.2062
-10.2002 -10.1956 -10.1919 -10.1834 -10.1819  -1.2413  -1.2283  -1.0842
 -0.8818  -0.8108  -0.7925  -0.7369  -0.7357  -0.6613  -0.6446  -0.5929
 -0.5866  -0.5630  -0.5505  -0.5208  -0.5054  -0.4933  -0.4838  -0.4577
 -0.4490  -0.4390  -0.4296  -0.4231  -0.4170  -0.4125  -0.3817  -0.3718
 -0.3675  -0.3602  -0.3426  -0.3132  -0.2776  -0.2343  -0.2136

          Ground-State Mulliken Net Atomic Charges

     Atom                 Charge (a.u.)
  ----------------------------------------
      1 C                    -0.350739
      2 C                    -0.107057
      3 C                     0.148171
      4 C                    -0.276798
      5 C                     0.116212
      6 C                    -0.112207
      7 C                    -0.351569
      8 C                     0.233597
      9 F                    -0.277390
     10 C                     0.259526
     11 F                    -0.302394
     12 C                     0.219231
     13 O                    -0.638858
     14 H                     0.147065
     15 H                     0.141237
     16 H                     0.155791
     17 H                     0.136195
     18 H                     0.145015
     19 H                     0.142551
     20 H                     0.148106
     21 H                     0.424315
  ----------------------------------------
  Sum of atomic charges =     0.000000

                    Cartesian Multipole Moments
 -----------------------------------------------------------------
    Charge (ESU x 10^10)
                 0.0000
    Dipole Moment (Debye)
         X      -0.5689      Y      -0.4069      Z       0.0271
       Tot       0.7000
    Quadrupole Moments (Debye-Ang)
        XX     -70.6114     XY      -4.7265     YY     -66.7118
        XZ      -0.3542     YZ       0.1789     ZZ     -75.8314

 Total job time:  28.91s(wall), 28.81s(cpu)
        *  Thank you very much for using Q-Chem.  Have a nice day.  *
