 Q-Chem 5.4, Q-Chem, Inc., Pleasanton, CA (2021)
 Q-Chem 5.4.2 for Intel X86 EM64T Linux

User input:
--------------------------------------------------------------
$molecule
0 1
C           -2.75300764760000        3.41670310530000        0.07414906130000
C           -1.56938575550000        2.82634522740000       -0.03561633200000
C           -1.30530271180000        1.39139978500000       -0.02259906140000
C           -2.32339774180000        0.43629712620000       -0.02230471420000
C           -2.04549094390000       -0.91982293720000       -0.00705922490000
C           -3.12434044970000       -1.95745995520000       -0.00595243820000
C           -0.71160832700000       -1.30668856500000        0.00810726250000
F           -0.43218862920000       -2.63076217290000        0.02399501930000
C            0.34550776700000       -0.39418023640000        0.00378700990000
C            1.70523981210000       -0.90931284020000        0.01742806660000
C            2.83869494280000       -0.22506616700000       -0.00189164360000
F            2.99845244930000        1.09277703530000       -0.03825737980000
F            4.03673910060000       -0.80291013690000        0.01349535000000
C            0.01859030060000        0.96022437200000       -0.01378302330000
H           -2.84441296790000        4.48888229500000        0.05683842710000
H           -3.67255681180000        2.86956357700000        0.19029883540000
H           -0.68453391640000        3.44185172920000       -0.13737615870000
H           -3.35482164270000        0.75074547830000       -0.04046833910000
H           -4.10608882880000       -1.49459576730000       -0.04548120830000
H           -3.05650839300000       -2.56904586680000        0.89295276610000
H           -3.00925258430000       -2.62120418280000       -0.86177182960000
H            1.81224689780000       -1.98417943040000        0.04509933540000
H            0.80469487240000        1.69730052870000       -0.01729045450000
$end

$rem
BASIS = 6-31G*
GUI = 2
METHOD = B3LYP
PRINT_ORBITALS false
MOLDEN_FORMAT false
$end
--------------------------------------------------------------

             Standard Nuclear Orientation (Angstroms)
    I     Atom           X                Y                Z
 ----------------------------------------------------------------
    1      C       3.3354268314     2.6933412005    -0.0721147421
    2      C       2.0481421590     2.3886868667     0.0356607559
    3      C       1.4637815882     1.0517636898     0.0239616823
    4      C       2.2372163089    -0.1103575920     0.0273565191
    5      C       1.6573782204    -1.3673843087     0.0132901010
    6      C       2.4711443862    -2.6237220979     0.0161271820
    7      C       0.2704510107    -1.4398721191    -0.0044948498
    8      F      -0.3035500894    -2.6653531339    -0.0192504246
    9      C      -0.5506986635    -0.3103158315    -0.0038981093
   10      C      -1.9920504898    -0.5017919403    -0.0200450922
   11      C      -2.9396158845     0.4229565889    -0.0043201227
   12      F      -2.7946783736     1.7425696365     0.0298874227
   13      F      -4.2378402905     0.1335435668    -0.0217474371
   14      C       0.0764624875     0.9338674077     0.0126105942
   15      H       3.6689173440     3.7164484476    -0.0560385351
   16      H       4.1061858908     1.9506909448    -0.1853585894
   17      H       1.3267867328     3.1899623854     0.1345039928
   18      H       3.3131346412    -0.0393931253     0.0475241526
   19      H       3.5325028214    -2.3968845951     0.0573422193
   20      H       2.2674017294    -3.2053855237    -0.8821075704
   21      H       2.2060130731    -3.2421393632     0.8725697778
   22      H      -2.3413239022    -1.5239767716    -0.0465150077
   23      H      -0.5208272759     1.8308057915     0.0132700006
 ----------------------------------------------------------------

    9    -724.0687559012      4.67e-06  Convergence criterion met
 Total energy in the final basis set =     -724.0687559012

                    Orbital Energies (a.u.)
 --------------------------------------------------------------

 Alpha MOs
 -- Occupied --
-24.7466 -24.7362 -24.7139 -10.3593 -10.2701 -10.2130 -10.2049 -10.2044
-10.1981 -10.1928 -10.1925 -10.1922 -10.1878 -10.1811  -1.2879  -1.2269
 -1.2242  -0.8789  -0.8199  -0.8016  -0.7621  -0.7288  -0.6983  -0.6539
 -0.6273  -0.6110  -0.5789  -0.5616  -0.5400  -0.5214  -0.5159  -0.5097
 -0.4747  -0.4706  -0.4452  -0.4430  -0.4394  -0.4372  -0.4287  -0.4198
 -0.4079  -0.4066  -0.3892  -0.3836  -0.3743  -0.3533  -0.3419  -0.3182
 -0.2793  -0.2338  -0.2165

          Ground-State Mulliken Net Atomic Charges

     Atom                 Charge (a.u.)
  ----------------------------------------
      1 C                    -0.355447
      2 C                    -0.113877
      3 C                     0.198830
      4 C                    -0.249038
      5 C                     0.111676
      6 C                    -0.522833
      7 C                     0.241936
      8 F                    -0.289389
      9 C                     0.133106
     10 C                    -0.298398
     11 C                     0.550682
     12 F                    -0.234440
     13 F                    -0.245783
     14 C                    -0.288945
     15 H                     0.145242
     16 H                     0.142065
     17 H                     0.129699
     18 H                     0.126068
     19 H                     0.157086
     20 H                     0.172229
     21 H                     0.172015
     22 H                     0.174841
     23 H                     0.142674
  ----------------------------------------
  Sum of atomic charges =     0.000000

                    Cartesian Multipole Moments
 -----------------------------------------------------------------
    Charge (ESU x 10^10)
                 0.0000
    Dipole Moment (Debye)
         X       1.4159      Y      -0.1009      Z       0.0032
       Tot       1.4195
    Quadrupole Moments (Debye-Ang)
        XX     -75.4143     XY      -0.7187     YY     -75.5130
        XZ      -0.1600     YZ       0.1190     ZZ     -80.3903

 Total job time:  61.49s(wall), 54.22s(cpu)
        *  Thank you very much for using Q-Chem.  Have a nice day.  *
