 Q-Chem 5.2, Q-Chem, Inc., Pleasanton, CA (2019)
 Q-Chem 5.2.1 for Intel X86 EM64T Linux

User input:
--------------------------------------------------------------
$molecule
0 1
C        -1.51095274890000   -3.21497443380000   -0.77288921150000
C        -0.91199913660000   -2.14920576510000   -0.25824309590000
C        -1.48676109760000   -0.80680832230000   -0.19456662560000
C        -2.86549551320000   -0.61359944230000   -0.11791552860000
C        -3.40444140340000    0.65411328080000   -0.02221562970000
C        -2.57027393010000    1.76046222850000    0.00340496390000
C        -1.20104795090000    1.58774787420000   -0.06335471080000
C        -0.64670162810000    0.31618754650000   -0.15775403120000
C         0.81694509210000    0.18329102640000   -0.30192364520000
C         1.31660267080000   -0.37137704070000   -1.47649670170000
C         2.67655920390000   -0.44448708080000   -1.71175496130000
C         3.56237029400000    0.05509812890000   -0.77127844880000
C         3.07905128530000    0.60874280010000    0.39782270690000
C         1.71085500250000    0.66768959760000    0.66317876560000
C         1.28504885170000    1.20543970990000    1.95605914230000
C         0.26101955090000    0.77422975670000    2.67867034350000
H        -1.03282195050000   -4.17954406770000   -0.78277670620000
H        -2.49066015210000   -3.16698609930000   -1.21837102600000
H         0.09022668590000   -2.24231217680000    0.14206702780000
H        -3.51832818810000   -1.47366360050000   -0.11321707210000
H        -4.47548123420000    0.78138516330000    0.03793778610000
H        -2.98680004660000    2.75422955480000    0.07628923240000
H        -0.54371604920000    2.44531114280000   -0.04780763970000
H         0.61901966150000   -0.73770525930000   -2.21650550690000
H         3.04360017450000   -0.88026114630000   -2.62919633470000
H         4.62678316040000    0.01365118940000   -0.95013757410000
H         3.77037902550000    0.99051065550000    1.13627191710000
H         1.92638245040000    1.98332493110000    2.35439786880000
H        -0.38190465080000   -0.02391698990000    2.34976414370000
H         0.03318908570000    1.20305039870000    3.63995422650000
$end

$rem
BASIS = 6-31G*
GUI = 2
METHOD = B3LYP
PRINT_ORBITALS false
MOLDEN_FORMAT false
--------------------------------------------------------------

             Standard Nuclear Orientation (Angstroms)
    I     Atom           X                Y                Z
 ----------------------------------------------------------------
    1      C       1.8352493553     2.9281886296     1.0932010012
    2      C       1.1293263180     1.8150773504     0.9444567420
    3      C       1.5561868189     0.6401097445     0.1870413099
    4      C       2.9066025347     0.3244330081     0.0426832716
    5      C       3.3062221685    -0.8053762424    -0.6432845829
    6      C       2.3576319254    -1.6496381300    -1.1981703353
    7      C       1.0145435458    -1.3571091951    -1.0581442261
    8      C       0.6000420496    -0.2236463864    -0.3678346468
    9      C      -0.8419188426     0.0890607083    -0.3072446947
   10      C      -1.2893786266     1.2591376596    -0.9135745518
   11      C      -2.6355528219     1.5672478784    -0.9688595188
   12      C      -3.5615667015     0.6920846174    -0.4254165124
   13      C      -3.1302883293    -0.4726457728     0.1781721572
   14      C      -1.7741179984    -0.7873083408     0.2655742913
   15      C      -1.3971675992    -2.0058016042     0.9833544062
   16      C      -0.3259904203    -2.1576569952     1.7490334332
   17      H       1.4641031087     3.7571578262     1.6712684163
   18      H       2.7999315191     3.0650078998     0.6335790551
   19      H       0.1467235789     1.7428540245     1.3946225412
   20      H       3.6485848083     0.9661823405     0.4938407088
   21      H       4.3577350447    -1.0324179613    -0.7418523954
   22      H       2.6649550745    -2.5335748785    -1.7372324169
   23      H       0.2685433316    -2.0081398619    -1.4910234833
   24      H      -0.5630588717     1.9259617767    -1.3565606248
   25      H      -2.9616863805     2.4813044230    -1.4426256204
   26      H      -4.6168493528     0.9173782544    -0.4734216033
   27      H      -3.8520726927    -1.1516313039     0.6106001363
   28      H      -2.1151648034    -2.8143967239     0.9075791437
   29      H       0.3964104638    -1.3728137469     1.8930024741
   30      H      -0.1370950872    -3.0798136459     2.2722984065
 ----------------------------------------------------------------

    8    -618.0893267963      7.65e-06  Convergence criterion met
 Total energy in the final basis set =     -618.0893267963

                    Orbital Energies (a.u.)
 --------------------------------------------------------------

 Alpha MOs
 -- Occupied --
-10.1940 -10.1927 -10.1904 -10.1898 -10.1861 -10.1858 -10.1853 -10.1851
-10.1844 -10.1841 -10.1830 -10.1823 -10.1820 -10.1810 -10.1753 -10.1751
 -0.8763  -0.8516  -0.7913  -0.7887  -0.7718  -0.7308  -0.7244  -0.7135
 -0.6302  -0.6251  -0.6060  -0.5873  -0.5592  -0.5503  -0.5158  -0.4958
 -0.4760  -0.4681  -0.4583  -0.4427  -0.4385  -0.4284  -0.4193  -0.4145
 -0.4108  -0.3777  -0.3735  -0.3700  -0.3625  -0.3548  -0.3392  -0.3366
 -0.3264  -0.2951  -0.2860  -0.2607  -0.2414  -0.2239  -0.2142

          Ground-State Mulliken Net Atomic Charges

     Atom                 Charge (a.u.)
  ----------------------------------------
      1 C                    -0.347068
      2 C                    -0.127865
      3 C                     0.135044
      4 C                    -0.200900
      5 C                    -0.122658
      6 C                    -0.135582
      7 C                    -0.136291
      8 C                    -0.018158
      9 C                    -0.009464
     10 C                    -0.153702
     11 C                    -0.134099
     12 C                    -0.120290
     13 C                    -0.199149
     14 C                     0.137349
     15 C                    -0.142704
     16 C                    -0.326985
     17 H                     0.141864
     18 H                     0.140940
     19 H                     0.147629
     20 H                     0.128115
     21 H                     0.126205
     22 H                     0.127039
     23 H                     0.132922
     24 H                     0.142228
     25 H                     0.129584
     26 H                     0.128392
     27 H                     0.127491
     28 H                     0.130286
     29 H                     0.159275
     30 H                     0.140550
  ----------------------------------------
  Sum of atomic charges =     0.000000

                    Cartesian Multipole Moments
 -----------------------------------------------------------------
    Charge (ESU x 10^10)
                 0.0000
    Dipole Moment (Debye)
         X      -0.2583      Y      -0.1838      Z      -0.1162
       Tot       0.3376
    Quadrupole Moments (Debye-Ang)
        XX     -84.1213     XY      -0.1737     YY     -86.8737
        XZ      -0.0798     YZ      -0.0055     ZZ     -94.9208

 Total job time:  53.52s(wall), 53.36s(cpu)
        *  Thank you very much for using Q-Chem.  Have a nice day.  *
