 Q-Chem 5.2, Q-Chem, Inc., Pleasanton, CA (2019)
 Q-Chem 5.2.1 for Intel X86 EM64T Linux

User input:
--------------------------------------------------------------
$molecule
0 1
C         5.05309994220000   -2.53645654430000   -0.35143760280000
C         4.48413829280000   -1.54070304360000    0.31740877480000
C         3.23992889600000   -0.86122036870000   -0.02133489090000
C         2.42894266490000   -1.23781709520000   -1.09278892360000
C         1.24934224390000   -0.56963807790000   -1.34250841330000
C         0.84639197670000    0.50711224970000   -0.55910774280000
O        -0.34742782790000    1.11909848970000   -0.88538783560000
C        -1.38288648220000    1.00544912400000    0.07025840730000
C        -1.94997784770000   -0.43005569930000    0.11597747250000
C        -2.70110658340000   -0.78718802930000   -1.17300580560000
C        -4.07905478860000   -0.12985582780000   -1.21686031000000
C        -4.83233568320000   -0.46249650700000    0.06791003320000
C        -3.99089459140000   -0.02995313580000    1.26703826510000
O        -2.72320044910000   -0.65367049780000    1.27819802500000
C         1.66685734880000    0.93923354000000    0.49405169920000
C         1.39571130310000    2.12286044330000    1.31168532430000
C         0.81085036200000    3.23251296310000    0.88105259250000
C         2.83123235340000    0.22172693570000    0.75234550120000
H         5.97950044530000   -2.97414117740000   -0.02116397050000
H         4.62963374760000   -2.95446240440000   -1.24838047600000
H         4.97108323760000   -1.16509464790000    1.20946733880000
H         2.70819235110000   -2.06816278120000   -1.72165081410000
H         0.61016920150000   -0.87293545870000   -2.15824777130000
H        -2.13983884090000    1.72379097970000   -0.25025028020000
H        -1.03627250790000    1.27472595430000    1.07534267560000
H        -1.09355520520000   -1.10769243570000    0.23494547340000
H        -2.82213589510000   -1.87161922320000   -1.21625009380000
H        -2.09631814950000   -0.46969921560000   -2.02315437570000
H        -4.63199263930000   -0.48902387080000   -2.08680610290000
H        -3.97749224070000    0.95330438300000   -1.31146465110000
H        -5.00203052980000   -1.53953362490000    0.12342885290000
H        -5.79776229660000    0.04406148110000    0.09776811700000
H        -4.46078314260000   -0.33509207270000    2.20505328170000
H        -3.88196751840000    1.06422744590000    1.27147176370000
H         1.77790162350000    2.07375204770000    2.32484478840000
H         0.45102442730000    3.32916544020000   -0.12899608640000
H         0.67798232030000    4.08533466620000    1.52551355680000
H         3.45648375400000    0.54249330980000    1.57499722350000
$end

$rem
BASIS = 6-31G*
GUI = 2
METHOD = B3LYP
PRINT_ORBITALS false
MOLDEN_FORMAT false
--------------------------------------------------------------

             Standard Nuclear Orientation (Angstroms)
    I     Atom           X                Y                Z
 ----------------------------------------------------------------
    1      C       5.3342926013    -1.9554150825     0.4945992841
    2      C       4.6616155288    -0.8365471914     0.7359249310
    3      C       3.3554192984    -0.4717313317     0.2018258803
    4      C       2.5934877437    -1.3193867509    -0.6034555002
    5      C       1.3522582535    -0.9232911213    -1.0537196238
    6      C       0.8356934061     0.3311003546    -0.7452725780
    7      O      -0.4134490614     0.6441518047    -1.2431013321
    8      C      -1.4365129448     0.8187341607    -0.2833035221
    9      C      -1.8518608987    -0.5286292185     0.3463431638
   10      C      -2.5551407681    -1.4389780341    -0.6684859988
   11      C      -3.9935961286    -0.9904234012    -0.9182759391
   12      C      -4.7150115350    -0.8577338574     0.4198832661
   13      C      -3.9292610071     0.0945950879     1.3191557962
   14      O      -2.6037795395    -0.3469712218     1.5296656523
   15      C       1.6013885106     1.2231040567     0.0209372164
   16      C       1.2046489454     2.6014542045     0.3137958115
   17      C       0.5100905730     3.3866282868    -0.4985624300
   18      C       2.8325472139     0.7839020752     0.4991112783
   19      H       6.2993598233    -2.1337977937     0.9369693416
   20      H       4.9611683972    -2.7339458746    -0.1482281958
   21      H       5.1022988482    -0.0924781970     1.3887074915
   22      H       2.9606519621    -2.2995970201    -0.8628777189
   23      H       0.7522699448    -1.5858927881    -1.6594714211
   24      H      -2.2622141602     1.2736591502    -0.8337383236
   25      H      -1.1249618699     1.4969232534     0.5203388903
   26      H      -0.9303965045    -1.0166632291     0.6920755013
   27      H      -2.5627936910    -2.4577723083    -0.2754098782
   28      H      -1.9821148106    -1.4275502687    -1.5962960256
   29      H      -4.5017364679    -1.7171350384    -1.5548536833
   30      H      -4.0044522208    -0.0293615377    -1.4366804284
   31      H      -4.7723500869    -1.8353386755     0.9024687443
   32      H      -5.7279210868    -0.4774326025     0.2823105880
   33      H      -4.3698572151     0.1424174133     2.3178375269
   34      H      -3.9344533509     1.1057166574     0.8870422467
   35      H       1.5845700629     2.9956863389     1.2493246159
   36      H       0.1474645286     3.0392040303    -1.4508299745
   37      H       0.2861030839     4.4077836289    -0.2390242243
   38      H       3.4168408665     1.4638367739     1.1048141509
 ----------------------------------------------------------------

    9    -772.1296495196      1.87e-06  Convergence criterion met
 Total energy in the final basis set =     -772.1296495196

                    Orbital Energies (a.u.)
 --------------------------------------------------------------

 Alpha MOs
 -- Occupied --
-19.1660 -19.1412 -10.2423 -10.2269 -10.2264 -10.2249 -10.1962 -10.1928
-10.1908 -10.1889 -10.1887 -10.1886 -10.1861 -10.1809 -10.1787 -10.1776
-10.1776 -10.1756  -1.0570  -1.0314  -0.8659  -0.8041  -0.7991  -0.7831
 -0.7707  -0.7373  -0.7247  -0.6872  -0.6381  -0.6365  -0.6167  -0.6083
 -0.5881  -0.5550  -0.5321  -0.5139  -0.5059  -0.4928  -0.4821  -0.4732
 -0.4647  -0.4550  -0.4420  -0.4326  -0.4308  -0.4275  -0.4181  -0.4150
 -0.3927  -0.3815  -0.3782  -0.3751  -0.3703  -0.3651  -0.3522  -0.3443
 -0.3409  -0.3349  -0.3208  -0.3109  -0.2926  -0.2800  -0.2718  -0.2420
 -0.2340  -0.2103

          Ground-State Mulliken Net Atomic Charges

     Atom                 Charge (a.u.)
  ----------------------------------------
      1 C                    -0.355901
      2 C                    -0.112086
      3 C                     0.193372
      4 C                    -0.191286
      5 C                    -0.165259
      6 C                     0.281194
      7 O                    -0.538519
      8 C                    -0.069500
      9 C                     0.120095
     10 C                    -0.281804
     11 C                    -0.278184
     12 C                    -0.270740
     13 C                    -0.032322
     14 O                    -0.479265
     15 C                     0.159141
     16 C                    -0.148158
     17 C                    -0.331844
     18 C                    -0.288504
     19 H                     0.143655
     20 H                     0.141230
     21 H                     0.126547
     22 H                     0.130133
     23 H                     0.138068
     24 H                     0.141833
     25 H                     0.158256
     26 H                     0.142643
     27 H                     0.138089
     28 H                     0.150247
     29 H                     0.138854
     30 H                     0.134813
     31 H                     0.142201
     32 H                     0.132547
     33 H                     0.143354
     34 H                     0.118477
     35 H                     0.134104
     36 H                     0.165114
     37 H                     0.140480
     38 H                     0.128926
  ----------------------------------------
  Sum of atomic charges =     0.000000

                    Cartesian Multipole Moments
 -----------------------------------------------------------------
    Charge (ESU x 10^10)
                 0.0000
    Dipole Moment (Debye)
         X      -0.8547      Y       0.0939      Z      -0.1268
       Tot       0.8691
    Quadrupole Moments (Debye-Ang)
        XX     -98.0320     XY      -2.0068     YY    -101.3949
        XZ       4.6382     YZ       4.6717     ZZ    -111.4827

 Total job time:  78.86s(wall), 75.02s(cpu)
        *  Thank you very much for using Q-Chem.  Have a nice day.  *
