 Q-Chem 5.2, Q-Chem, Inc., Pleasanton, CA (2019)
 Q-Chem 5.2.1 for Intel X86 EM64T Linux

User input:
--------------------------------------------------------------
$molecule
0 1
C         4.76986089280000    0.27071640030000    0.16172465130000
C         3.52990701550000    0.74540751670000    0.19795291530000
C         2.30120896380000   -0.03185964920000    0.10767238950000
C         2.27345651560000   -1.42942929430000    0.07187615590000
C         1.08337936950000   -2.11550165170000   -0.03526854570000
C        -0.14127095090000   -1.44328689130000   -0.11564096420000
C        -1.37479850580000   -2.18843020470000   -0.32925972040000
C        -2.36455854290000   -1.77415507530000   -1.10811635810000
C        -0.10586606520000   -0.05636595960000   -0.02248883070000
S        -1.62146220250000    0.87612850790000    0.04575608740000
O        -1.95285175450000    1.46101605200000   -1.20710699110000
O        -2.62246336520000    0.28421946790000    0.85875121630000
F        -1.04933793130000    2.13637791530000    0.95255452890000
C         1.07655505540000    0.64066503970000    0.07271766130000
H         5.61903846650000    0.92776817190000    0.23316049010000
H         4.99369890870000   -0.77685500470000    0.05647602550000
H         3.37725109910000    1.81237708610000    0.29602526330000
H         3.19639640440000   -1.98465526950000    0.12800660780000
H         1.08718142290000   -3.19458584110000   -0.07887645940000
H        -1.41920481170000   -3.16095916520000    0.14356436800000
H        -2.32761522650000   -0.83721518700000   -1.63656011130000
H        -3.24830983530000   -2.37168854290000   -1.25052673520000
H         1.05027188450000    1.71689674450000    0.13084201660000
$end

$rem
BASIS = 6-31G*
GUI = 2
METHOD = B3LYP
PRINT_ORBITALS false
MOLDEN_FORMAT false
--------------------------------------------------------------

             Standard Nuclear Orientation (Angstroms)
    I     Atom           X                Y                Z
 ----------------------------------------------------------------
    1      C       4.6906718578     0.5248991675    -0.1815170560
    2      C       3.4328099604     0.9499584277    -0.1463342002
    3      C       2.2408378116     0.1212240273    -0.0263533144
    4      C       2.2801216995    -1.2620071967     0.1745960289
    5      C       1.1212120117    -2.0023143388     0.2602263465
    6      C      -0.1377015903    -1.4020429925     0.1465968145
    7      C      -1.3430183951    -2.2203532986     0.1401623394
    8      C      -2.3942920148    -1.9838804965    -0.6323471209
    9      C      -0.1656001308    -0.0192240718     0.0033697202
   10      S      -1.7191221244     0.8512632524     0.0108654452
   11      O      -2.1489771612     1.2007016706    -1.2985984936
   12      O      -2.6423344631     0.3678507474     0.9738358740
   13      F      -1.1597517994     2.2689933279     0.6550583019
   14      C       0.9844621199     0.7295393122    -0.0953541928
   15      H       5.5090606631     1.2172155173    -0.2756472666
   16      H       4.9596570497    -0.5157185985    -0.1236533296
   17      H       3.2334457711     2.0112367425    -0.2190551386
   18      H       3.2310331778    -1.7630220054     0.2640167833
   19      H       1.1758040279    -3.0720619221     0.3980618037
   20      H      -1.3126857353    -3.0990749233     0.7712529458
   21      H      -2.4334414128    -1.1499690140    -1.3117092683
   22      H      -3.2540903965    -2.6310409985    -0.6158142816
   23      H       0.9084100546     1.7980726280    -0.2169953227
 ----------------------------------------------------------------

    9   -1034.8428705643      7.15e-06  Convergence criterion met
 Total energy in the final basis set =    -1034.8428705643

                    Orbital Energies (a.u.)
 --------------------------------------------------------------

 Alpha MOs
 -- Occupied --
-89.1474 -24.7172 -19.1698 -19.1678 -10.2469 -10.2340 -10.2243 -10.2234
-10.2183 -10.2176 -10.2094 -10.2069 -10.1992 -10.1970  -8.1719  -6.1387
 -6.1354  -6.1340  -1.2299  -1.1255  -1.0443  -0.9055  -0.8372  -0.8016
 -0.7880  -0.7438  -0.6977  -0.6515  -0.6366  -0.5997  -0.5848  -0.5470
 -0.5209  -0.5162  -0.5052  -0.4901  -0.4801  -0.4687  -0.4574  -0.4331
 -0.4299  -0.4249  -0.4167  -0.4090  -0.3985  -0.3882  -0.3717  -0.3629
 -0.3549  -0.3420  -0.3293  -0.3272  -0.2879  -0.2817  -0.2374

          Ground-State Mulliken Net Atomic Charges

     Atom                 Charge (a.u.)
  ----------------------------------------
      1 C                    -0.348376
      2 C                    -0.111449
      3 C                     0.181699
      4 C                    -0.169561
      5 C                    -0.174785
      6 C                     0.162231
      7 C                    -0.133011
      8 C                    -0.343740
      9 C                    -0.225271
     10 S                     1.209580
     11 O                    -0.467967
     12 O                    -0.450354
     13 F                    -0.328773
     14 C                    -0.216795
     15 H                     0.156001
     16 H                     0.148102
     17 H                     0.140537
     18 H                     0.143970
     19 H                     0.147232
     20 H                     0.147328
     21 H                     0.195966
     22 H                     0.160380
     23 H                     0.177058
  ----------------------------------------
  Sum of atomic charges =     0.000000

                    Cartesian Multipole Moments
 -----------------------------------------------------------------
    Charge (ESU x 10^10)
                 0.0000
    Dipole Moment (Debye)
         X       4.2219      Y      -2.7865      Z      -0.0166
       Tot       5.0586
    Quadrupole Moments (Debye-Ang)
        XX     -83.6738     XY       5.5475     YY     -79.7402
        XZ       1.2021     YZ      -0.8990     ZZ     -92.5141

 Total job time:  38.69s(wall), 38.57s(cpu)
        *  Thank you very much for using Q-Chem.  Have a nice day.  *
