 Q-Chem 5.2, Q-Chem, Inc., Pleasanton, CA (2019)
 Q-Chem 5.2.1 for Intel X86 EM64T Linux

User input:
--------------------------------------------------------------
$molecule
0 1
C         1.13649562960000   -4.60312171360000    1.96616410780000
O         2.13226223560000   -4.44241802000000    0.98432760030000
C         2.24983881290000   -3.23934914250000    0.36439217700000
C         1.45127136910000   -2.13406808350000    0.62856310680000
C         1.63588073440000   -0.95153909240000   -0.08316657400000
N         0.82587657020000    0.17423630360000    0.17100757960000
C         1.55297605010000    1.35720461400000    0.42221376180000
C         2.57908137350000    1.73129554350000   -0.44398896850000
S         2.97276221550000    0.68726158910000   -1.82203098270000
C         3.29871384850000    2.89554819990000   -0.22579237100000
C         3.00937294050000    3.68679818570000    0.87044774030000
C         2.02847387420000    3.29459610020000    1.76735628340000
C         1.31302532820000    2.13042698240000    1.55336970100000
C        -0.55039006250000    0.15101842980000    0.04427187560000
C        -1.31703620460000    1.30977471720000    0.21847929890000
C        -2.68724249860000    1.28601383670000    0.08994646890000
C        -3.36397639090000    0.10756407670000   -0.23297832740000
C        -4.80413813340000    0.01026570890000   -0.36598034670000
C        -5.71824745950000    0.94809726030000   -0.16097964200000
F        -5.53047554220000    2.20887131510000    0.22032583310000
F        -7.02764811610000    0.73689758450000   -0.31575614970000
C        -2.59192785010000   -1.03376438520000   -0.46392393820000
C        -1.22226510490000   -1.01724514040000   -0.33628951860000
C         2.67415289290000   -0.85741508870000   -1.00263221240000
C         3.48042044350000   -1.95751612760000   -1.25974212690000
C         3.25958929650000   -3.14418082650000   -0.59809925140000
H         1.22702681710000   -5.63201138480000    2.31011249060000
H         0.13462787020000   -4.44723425920000    1.55326034670000
H         1.29183434570000   -3.92487490360000    2.81123812770000
H         0.67490722940000   -2.16372243640000    1.37641008630000
H         4.07564111450000    3.17154382710000   -0.92166623740000
H         3.56155725970000    4.59924449910000    1.03388315810000
H         1.82090208110000    3.89447218900000    2.64022603460000
H         0.55861763060000    1.81367862160000    2.25787373900000
H        -0.83328383490000    2.24917415540000    0.43342571280000
H        -3.23282228010000    2.20374733950000    0.23576074450000
H        -5.19626692040000   -0.95031248810000   -0.66847341140000
H        -3.07924531650000   -1.95271441880000   -0.75643527120000
H        -0.66458963580000   -1.91257302290000   -0.56143045550000
H         4.27149267140000   -1.87285548420000   -1.98791782870000
H         3.86702599490000   -4.01243918490000   -0.79348235340000
$end

$rem
BASIS = 6-31G*
GUI = 2
METHOD = B3LYP
PRINT_ORBITALS false
MOLDEN_FORMAT false
--------------------------------------------------------------

             Standard Nuclear Orientation (Angstroms)
    I     Atom           X                Y                Z
 ----------------------------------------------------------------
    1      C      -2.0429833505    -4.2866156914    -1.8157985397
    2      O      -2.9850007527    -3.8811431178    -0.8516538700
    3      C      -2.8406093660    -2.6619697190    -0.2700300605
    4      C      -1.8187058157    -1.7663896271    -0.5577658675
    5      C      -1.7447100700    -0.5496778475     0.1153995254
    6      N      -0.7072281069     0.3637241466    -0.1628260339
    7      C      -1.1573310735     1.6679509596    -0.4587854279
    8      C      -2.0817712422     2.2844422659     0.3829343425
    9      S      -2.7012209781     1.3963811357     1.7870784768
   10      C      -2.5288495544     3.5698530309     0.1206271751
   11      C      -2.0679050281     4.2431844121    -0.9954785894
   12      C      -1.1913665206     3.6178849941    -1.8678955033
   13      C      -0.7483302348     2.3333313331    -1.6098502442
   14      C       0.6301073436     0.0452790938    -0.0184740548
   15      C       1.6320392348     1.0028843844    -0.2183121393
   16      C       2.9633322344     0.6852883227    -0.0722222808
   17      C       3.3648811155    -0.6012379747     0.2946586321
   18      C       4.7483740558    -1.0056641775     0.4483111121
   19      C       5.8461783610    -0.2966846888     0.2262233821
   20      F       5.9400819725     0.9617098658    -0.1954739410
   21      F       7.0770929644    -0.7830170429     0.4034837288
   22      C       2.3611721508    -1.5388324489     0.5506086242
   23      C       1.0288247076    -1.2283895338     0.4056432726
   24      C      -2.7423971091    -0.2019032617     1.0187039440
   25      C      -3.7706466703    -1.0909809256     1.2991302527
   26      C      -3.8104675900    -2.3180007707     0.6765972079
   27      H      -2.3539574266    -5.2816206088    -2.1294395443
   28      H      -1.0334931454    -4.3395225927    -1.3954893592
   29      H      -2.0420147453    -3.6184958636    -2.6829282351
   30      H      -1.0634762833    -1.9886603864    -1.2947325056
   31      H      -3.2305989098     4.0308564760     0.7981621681
   32      H      -2.4068092175     5.2482568855    -1.1933427007
   33      H      -0.8531851298     4.1295812430    -2.7559491444
   34      H      -0.0774024534     1.8372044076    -2.2950512540
   35      H       1.3660771332     2.0176713348    -0.4676336713
   36      H       3.6967856295     1.4568805472    -0.2390918089
   37      H       4.9198261721    -2.0183147868     0.7846449163
   38      H       2.6346549110    -2.5319421157     0.8768764999
   39      H       0.2880260059    -1.9729268239     0.6509673331
   40      H      -4.5281215471    -0.8124859825     2.0145846011
   41      H      -4.5937604754    -3.0262521754     0.8907436053
 ----------------------------------------------------------------

    9   -1537.0678303235      5.45e-06  Convergence criterion met
 Total energy in the final basis set =    -1537.0678303235

                    Orbital Energies (a.u.)
 --------------------------------------------------------------

 Alpha MOs
 -- Occupied --
-88.8923 -24.7349 -24.7242 -19.1857 -14.3737 -10.3446 -10.2556 -10.2463
-10.2382 -10.2364 -10.2330 -10.2248 -10.2190 -10.2003 -10.1987 -10.1973
-10.1956 -10.1954 -10.1950 -10.1946 -10.1915 -10.1908 -10.1859 -10.1830
-10.1801 -10.1798  -7.9531  -5.9180  -5.9145  -5.9082  -1.2745  -1.2141
 -1.0767  -0.9891  -0.8757  -0.8718  -0.8529  -0.8119  -0.7971  -0.7742
 -0.7637  -0.7531  -0.7456  -0.7255  -0.7205  -0.6762  -0.6500  -0.6402
 -0.6216  -0.6138  -0.6016  -0.5977  -0.5710  -0.5627  -0.5526  -0.5448
 -0.5220  -0.5094  -0.5088  -0.4986  -0.4900  -0.4789  -0.4777  -0.4662
 -0.4575  -0.4509  -0.4477  -0.4454  -0.4399  -0.4316  -0.4299  -0.4222
 -0.4125  -0.4115  -0.4094  -0.4019  -0.3855  -0.3839  -0.3808  -0.3721
 -0.3654  -0.3592  -0.3517  -0.3431  -0.3341  -0.3311  -0.3265  -0.2906
 -0.2831  -0.2597  -0.2513  -0.2455  -0.2416  -0.2092  -0.1821

          Ground-State Mulliken Net Atomic Charges

     Atom                 Charge (a.u.)
  ----------------------------------------
      1 C                    -0.217464
      2 O                    -0.504803
      3 C                     0.375288
      4 C                    -0.229145
      5 C                     0.268135
      6 N                    -0.691169
      7 C                     0.261913
      8 C                    -0.097475
      9 S                     0.166412
     10 C                    -0.177169
     11 C                    -0.110691
     12 C                    -0.146901
     13 C                    -0.144850
     14 C                     0.360420
     15 C                    -0.196985
     16 C                    -0.206564
     17 C                     0.198681
     18 C                    -0.298580
     19 C                     0.532699
     20 F                    -0.240579
     21 F                    -0.254803
     22 C                    -0.206528
     23 C                    -0.197830
     24 C                    -0.114591
     25 C                    -0.175256
     26 C                    -0.156540
     27 H                     0.173001
     28 H                     0.153397
     29 H                     0.154321
     30 H                     0.151964
     31 H                     0.147057
     32 H                     0.134462
     33 H                     0.135796
     34 H                     0.149882
     35 H                     0.149334
     36 H                     0.137357
     37 H                     0.154128
     38 H                     0.124568
     39 H                     0.148445
     40 H                     0.148951
     41 H                     0.141710
  ----------------------------------------
  Sum of atomic charges =     0.000000

                    Cartesian Multipole Moments
 -----------------------------------------------------------------
    Charge (ESU x 10^10)
                 0.0000
    Dipole Moment (Debye)
         X      -1.6567      Y      -0.8724      Z      -2.0711
       Tot       2.7920
    Quadrupole Moments (Debye-Ang)
        XX    -165.4474     XY      -3.4166     YY    -135.6003
        XZ      -0.8629     YZ      -0.5152     ZZ    -150.4636

 Total job time:  147.62s(wall), 143.44s(cpu)
        *  Thank you very much for using Q-Chem.  Have a nice day.  *
