 Q-Chem 5.2, Q-Chem, Inc., Pleasanton, CA (2019)
 Q-Chem 5.2.1 for Intel X86 EM64T Linux

User input:
--------------------------------------------------------------
$molecule
0 1
C         0.66148474150000   -4.38541901550000    1.94346975520000
O         1.64720132730000   -4.32759326500000    0.93989284630000
C         1.88909389080000   -3.13867096000000    0.32992641410000
C         1.23708550770000   -1.94985511800000    0.63175084160000
C         1.53915856490000   -0.78782141930000   -0.07338382590000
N         0.87709662440000    0.42293744380000    0.21726979530000
C         1.74688716650000    1.50727038670000    0.45798227360000
C         2.78483470020000    1.76870241480000   -0.43521287860000
S         3.00973454740000    0.70523592310000   -1.83587182570000
C         3.64428131910000    2.83594973230000   -0.22687479000000
C         3.48339916930000    3.64084632750000    0.88569248280000
C         2.48881505420000    3.35596258630000    1.80771568730000
C         1.63362471090000    2.28830362690000    1.60352543770000
C        -0.49567906330000    0.56468046160000    0.14010200340000
C        -1.11076797770000    1.80614384490000    0.34259477500000
C        -2.47793055540000    1.93697633660000    0.26248957320000
C        -3.30364341940000    0.84897106320000   -0.03160512720000
C        -4.73767209480000    1.05637320730000   -0.07420946960000
C        -5.69569588340000    0.16299756200000   -0.27699496740000
F        -5.56738802790000   -1.14465612920000   -0.48868166990000
F        -6.99397473030000    0.47465606760000   -0.29077685630000
C        -2.68393706600000   -0.37518625950000   -0.29287971830000
C        -1.31653859880000   -0.51236894730000   -0.21723365110000
C         2.55302546270000   -0.80461519970000   -1.02412304130000
C         3.21459178170000   -1.98875815370000   -1.31818615540000
C         2.87364802380000   -3.15020911810000   -0.66291763140000
H         0.63639004270000   -5.42349459680000    2.27029697840000
H        -0.32353761410000   -4.10455843240000    1.55729763100000
H         0.91586606620000   -3.74514233710000    2.79415348080000
H         0.48660314170000   -1.89809255530000    1.40432760010000
H         4.42820765760000    3.02691842120000   -0.94311205710000
H         4.14531250430000    4.47849953860000    1.04194629280000
H         2.37984106360000    3.96405154080000    2.69277174000000
H         0.86736843290000    2.05388782670000    2.32726860070000
H        -0.51252650590000    2.68139662090000    0.53999065280000
H        -2.92060876770000    2.90845321220000    0.42822410500000
H        -5.08306355230000    2.06783914370000    0.08554769710000
H        -3.27256374110000   -1.23406974810000   -0.57080958680000
H        -0.87636310350000   -1.46477732470000   -0.46658379080000
H         3.98776840640000   -1.98816110800000   -2.07013007880000
H         3.36657484090000   -4.08171443200000   -0.88726289490000
$end

$rem
BASIS = 6-31G*
GUI = 2
METHOD = B3LYP
PRINT_ORBITALS false
MOLDEN_FORMAT false
--------------------------------------------------------------

             Standard Nuclear Orientation (Angstroms)
    I     Atom           X                Y                Z
 ----------------------------------------------------------------
    1      C      -0.6124601879    -4.3825836328    -1.9065131781
    2      O      -1.5990041260    -4.3213198166    -0.9039537435
    3      C      -1.8396927434    -3.1308393544    -0.2965555491
    4      C      -1.1856511418    -1.9435866806    -0.6001287606
    5      C      -1.4866466640    -0.7797179059     0.1024354849
    6      N      -0.8225292275     0.4294849178    -0.1900010495
    7      C      -1.6904945480     1.5146248624    -0.4336473475
    8      C      -2.7288674866     1.7793536065     0.4580811428
    9      S      -2.9566169115     0.7189880741     1.8606293749
   10      C      -3.5865436806     2.8474566064     0.2468523223
   11      C      -3.4234569802     3.6499164264    -0.8671532868
   12      C      -2.4284558316     3.3617432158    -1.7877031293
   13      C      -1.5750327366     2.2932266769    -1.5806252163
   14      C       0.5503838254     0.5693509131    -0.1118582791
   15      C       1.1674934150     1.8095016454    -0.3162376876
   16      C       2.5347745446     1.9384712432    -0.2351411190
   17      C       3.3586081800     0.8498295182     0.0618542301
   18      C       4.7929027822     1.0551956702     0.1053600799
   19      C       5.7494183495     0.1608071555     0.3107833884
   20      F       5.6189827591    -1.1462349877     0.5249322486
   21      F       7.0481438671     0.4705730841     0.3251370749
   22      C       2.7368532085    -0.3728923285     0.3249769544
   23      C       1.3693227298    -0.5082029507     0.2483518229
   24      C      -2.5014031496    -0.7931361056     1.0522788405
   25      C      -3.1649886860    -1.9757171023     1.3480728009
   26      C      -2.8251670951    -3.1389621439     0.6954089619
   27      H      -0.5886038695    -5.4213384030    -2.2312686150
   28      H       0.3726244331    -4.1024173327    -1.5199957122
   29      H      -0.8651185531    -3.7436124374    -2.7586906515
   30      H      -0.4343893769    -1.8944587793    -1.3721198242
   31      H      -4.3708388429     3.0409974170     0.9619945599
   32      H      -4.0839873958     4.4882368967    -1.0256644139
   33      H      -2.3177757427     3.9679218895    -2.6738572113
   34      H      -0.8084650616     2.0562501843    -2.3032037647
   35      H       0.5707278925     2.6852462332    -0.5159067670
   36      H       2.9790406774     2.9089636816    -0.4023872992
   37      H       5.1399360362     2.0658326374    -0.0560765729
   38      H       3.3239547933    -1.2320944696     0.6051387497
   39      H       0.9275113411    -1.4594655653     0.4991780797
   40      H      -3.9388483946    -1.9724927480     2.0993070310
   41      H      -3.3196760106    -4.0692931600     0.9211409424
 ----------------------------------------------------------------

    9   -1537.0678208144      5.49e-06  Convergence criterion met
 Total energy in the final basis set =    -1537.0678208144

                    Orbital Energies (a.u.)
 --------------------------------------------------------------

 Alpha MOs
 -- Occupied --
-88.8922 -24.7351 -24.7244 -19.1852 -14.3739 -10.3447 -10.2552 -10.2456
-10.2381 -10.2366 -10.2331 -10.2250 -10.2187 -10.2000 -10.1989 -10.1976
-10.1959 -10.1953 -10.1951 -10.1947 -10.1916 -10.1904 -10.1858 -10.1833
-10.1801 -10.1799  -7.9530  -5.9179  -5.9145  -5.9081  -1.2746  -1.2143
 -1.0763  -0.9891  -0.8757  -0.8718  -0.8530  -0.8118  -0.7972  -0.7741
 -0.7635  -0.7533  -0.7454  -0.7254  -0.7205  -0.6761  -0.6491  -0.6414
 -0.6212  -0.6139  -0.6009  -0.5985  -0.5710  -0.5631  -0.5515  -0.5441
 -0.5253  -0.5090  -0.5073  -0.4976  -0.4889  -0.4804  -0.4779  -0.4666
 -0.4561  -0.4506  -0.4488  -0.4462  -0.4385  -0.4318  -0.4299  -0.4222
 -0.4130  -0.4115  -0.4092  -0.4021  -0.3852  -0.3838  -0.3807  -0.3722
 -0.3656  -0.3592  -0.3517  -0.3427  -0.3342  -0.3311  -0.3263  -0.2906
 -0.2832  -0.2597  -0.2514  -0.2455  -0.2415  -0.2091  -0.1821

          Ground-State Mulliken Net Atomic Charges

     Atom                 Charge (a.u.)
  ----------------------------------------
      1 C                    -0.218195
      2 O                    -0.504552
      3 C                     0.376065
      4 C                    -0.230347
      5 C                     0.269189
      6 N                    -0.690481
      7 C                     0.260747
      8 C                    -0.097238
      9 S                     0.166254
     10 C                    -0.177597
     11 C                    -0.110742
     12 C                    -0.147219
     13 C                    -0.144203
     14 C                     0.360168
     15 C                    -0.196930
     16 C                    -0.206482
     17 C                     0.198463
     18 C                    -0.298275
     19 C                     0.532232
     20 F                    -0.241135
     21 F                    -0.254605
     22 C                    -0.206398
     23 C                    -0.198249
     24 C                    -0.115062
     25 C                    -0.174969
     26 C                    -0.156517
     27 H                     0.173217
     28 H                     0.154699
     29 H                     0.154085
     30 H                     0.152483
     31 H                     0.147099
     32 H                     0.134319
     33 H                     0.135326
     34 H                     0.149525
     35 H                     0.148819
     36 H                     0.125824
     37 H                     0.154671
     38 H                     0.136005
     39 H                     0.149374
     40 H                     0.148853
     41 H                     0.141781
  ----------------------------------------
  Sum of atomic charges =     0.000000

                    Cartesian Multipole Moments
 -----------------------------------------------------------------
    Charge (ESU x 10^10)
                 0.0000
    Dipole Moment (Debye)
         X      -1.4848      Y       0.2160      Z      -2.3863
       Tot       2.8189
    Quadrupole Moments (Debye-Ang)
        XX    -161.7672     XY      -2.7231     YY    -138.2228
        XZ      -2.5335     YZ      -0.8231     ZZ    -150.3425

 Total job time:  145.41s(wall), 143.65s(cpu)
        *  Thank you very much for using Q-Chem.  Have a nice day.  *
