 Q-Chem 5.2, Q-Chem, Inc., Pleasanton, CA (2019)
 Q-Chem 5.2.1 for Intel X86 EM64T Linux

User input:
--------------------------------------------------------------
$molecule
0 1
C        -4.04456385700000    1.17550135990000   -0.44319992020000
C        -3.59475097530000   -0.03226721740000   -0.12368294620000
C        -2.20095696220000   -0.43093994340000    0.02180424540000
C        -1.89532791940000   -1.76713839930000    0.29150004330000
C        -0.58979168660000   -2.18395579200000    0.42542510260000
C         0.48031232990000   -1.29878025190000    0.28419300230000
C         1.83893026900000   -1.84084762150000    0.38600885890000
C         2.81403424200000   -1.63945894120000   -0.48648139080000
C         0.17381982320000    0.04768463360000    0.05365502740000
C         1.24693490940000    1.10025705150000   -0.02006672280000
F         2.24990073830000    0.91300950040000    0.85152024910000
F         1.81445228370000    1.18968643650000   -1.24122065270000
F         0.77017826650000    2.33122015530000    0.23884930650000
C        -1.14128473280000    0.46725005770000   -0.07961337880000
H        -5.09924950980000    1.37163340310000   -0.52994640470000
H        -3.39423186990000    2.01180310530000   -0.63285486790000
H        -4.30702048210000   -0.83015041090000    0.04681715080000
H        -2.69732458560000   -2.48375540970000    0.39552113900000
H        -0.37524553320000   -3.22329374720000    0.62651826560000
H         1.99140851140000   -2.51297087200000    1.22152568380000
H         2.69312776780000   -1.01933099700000   -1.35786198240000
H         3.77712178140000   -2.10384719080000   -0.36347677690000
H        -1.34003505500000    1.51285976220000   -0.25154286310000
$end

$rem
BASIS = 6-31G*
GUI = 2
METHOD = B3LYP
PRINT_ORBITALS false
MOLDEN_FORMAT false
--------------------------------------------------------------

             Standard Nuclear Orientation (Angstroms)
    I     Atom           X                Y                Z
 ----------------------------------------------------------------
    1      C       4.0175110950    -1.1551462052    -0.2593894217
    2      C       3.5294427446     0.0669648283    -0.0822974438
    3      C       2.1231074567     0.4378880402     0.0037562896
    4      C       1.7761542874     1.7862484283     0.1182945403
    5      C       0.4576690715     2.1765161804     0.1916793659
    6      C      -0.5849258824     1.2497002909     0.1405626549
    7      C      -1.9596057933     1.7591900822     0.1674234353
    8      C      -2.9171313004     1.4322659691    -0.6863270681
    9      C      -0.2373288541    -0.1044356259     0.0660957028
   10      C      -1.2790590781    -1.1900267692     0.1008748567
   11      F      -2.2982233444    -0.9359828006     0.9359986854
   12      F      -1.8278291601    -1.4327874038    -1.1079299981
   13      F      -0.7709468187    -2.3694411666     0.5013847578
   14      C       1.0907895028    -0.4970749999    -0.0062338109
   15      H       5.0783842007    -1.3283735786    -0.3131954433
   16      H       3.3937264369    -2.0263908503    -0.3600212779
   17      H       4.2164758255     0.8997395726     0.0042328685
   18      H       2.5560462923     2.5335080729     0.1487980624
   19      H       0.2110816538     3.2250274448     0.2723680957
   20      H      -2.1420006474     2.5160333676     0.9204227723
   21      H      -2.7673019030     0.7221027944    -1.4811230137
   22      H      -3.8945439739     1.8787249180    -0.6258038277
   23      H       1.3213865257    -1.5490107184    -0.0573938485
 ----------------------------------------------------------------

    9    -724.0749255368      3.57e-06  Convergence criterion met
 Total energy in the final basis set =     -724.0749255368

                    Orbital Energies (a.u.)
 --------------------------------------------------------------

 Alpha MOs
 -- Occupied --
-24.7182 -24.7151 -24.7141 -10.4261 -10.2154 -10.2139 -10.2074 -10.2036
-10.2015 -10.1997 -10.1986 -10.1956 -10.1882 -10.1838  -1.3007  -1.2084
 -1.2069  -0.8858  -0.8211  -0.7857  -0.7751  -0.7289  -0.6949  -0.6446
 -0.6306  -0.5926  -0.5764  -0.5754  -0.5717  -0.5348  -0.5041  -0.4858
 -0.4733  -0.4561  -0.4525  -0.4467  -0.4403  -0.4290  -0.4133  -0.4076
 -0.4036  -0.3909  -0.3897  -0.3824  -0.3682  -0.3536  -0.3472  -0.3168
 -0.2736  -0.2692  -0.2264

          Ground-State Mulliken Net Atomic Charges

     Atom                 Charge (a.u.)
  ----------------------------------------
      1 C                    -0.348881
      2 C                    -0.115692
      3 C                     0.179892
      4 C                    -0.183340
      5 C                    -0.185684
      6 C                     0.117570
      7 C                    -0.144582
      8 C                    -0.321033
      9 C                    -0.065566
     10 C                     0.793640
     11 F                    -0.263548
     12 F                    -0.264808
     13 F                    -0.270363
     14 C                    -0.232855
     15 H                     0.149343
     16 H                     0.149495
     17 H                     0.130438
     18 H                     0.136138
     19 H                     0.137291
     20 H                     0.142838
     21 H                     0.160075
     22 H                     0.146758
     23 H                     0.152873
  ----------------------------------------
  Sum of atomic charges =     0.000000

                    Cartesian Multipole Moments
 -----------------------------------------------------------------
    Charge (ESU x 10^10)
                -0.0000
    Dipole Moment (Debye)
         X       1.5833      Y       1.8942      Z      -0.0373
       Tot       2.4691
    Quadrupole Moments (Debye-Ang)
        XX     -72.3818     XY      -3.0699     YY     -74.1279
        XZ       0.4248     YZ       1.9902     ZZ     -81.4188

 Total job time:  38.96s(wall), 38.82s(cpu)
        *  Thank you very much for using Q-Chem.  Have a nice day.  *
