 Q-Chem 5.2, Q-Chem, Inc., Pleasanton, CA (2019)
 Q-Chem 5.2.1 for Intel X86 EM64T Linux

User input:
--------------------------------------------------------------
$molecule
0 1
C        -4.63093505700000    0.10704335710000   -0.00548961280000
C        -3.64082096480000   -0.78154603650000   -0.00210235770000
C        -2.24212242110000   -0.45664420270000    0.00071185240000
C        -1.19648237160000   -1.34536239150000    0.00165062800000
C         0.04487007430000   -0.69521816720000    0.00233925910000
S         1.69346507280000   -1.21130906620000    0.00143505970000
C         2.24211260840000    0.45661529060000    0.00052335470000
C         3.64080992840000    0.78156303950000   -0.00234159310000
C         4.63096156830000   -0.10698984660000   -0.00504196810000
C         1.19647569580000    1.34534436020000    0.00157234940000
C        -0.04487793450000    0.69520445290000    0.00238027680000
S        -1.69346249550000    1.21130085300000    0.00162880410000
H        -5.66264033380000   -0.19597051680000   -0.00795878110000
H        -4.43450199040000    1.16661785100000   -0.00590958270000
H        -3.85564374390000   -1.84273963590000   -0.00186928290000
H        -1.32341695830000   -2.41253909450000    0.00139600310000
H         3.85558271970000    1.84277101260000   -0.00269646290000
H         4.43456579580000   -1.16658386220000   -0.00493898220000
H         5.66265447970000    0.19606995490000   -0.00774131950000
H         1.32342379840000    2.41251809620000    0.00135253930000
$end

$rem
BASIS = 6-31G*
GUI = 2
METHOD = B3LYP
PRINT_ORBITALS false
MOLDEN_FORMAT false
--------------------------------------------------------------

             Standard Nuclear Orientation (Angstroms)
    I     Atom           X                Y                Z
 ----------------------------------------------------------------
    1      C       4.6296119177    -0.1539880159    -0.0053390876
    2      C       3.6485576852     0.7445940382    -0.0019649824
    3      C       2.2466370025     0.4338896659     0.0008510573
    4      C       1.2100609762     1.3331634276     0.0017765874
    5      C      -0.0378191672     0.6956380977     0.0024715144
    6      S      -1.6810970376     1.2284167653     0.0015578615
    7      C      -2.2466266499    -0.4338594070     0.0006667677
    8      C      -3.6485465655    -0.7446097779    -0.0021963498
    9      C      -4.6296387044     0.1539360725    -0.0049098744
   10      C      -1.2100538737    -1.3331439915     0.0017290081
   11      C       0.0378274080    -0.6956229710     0.0025306396
   12      S       1.6810947882    -1.2284070551     0.0017886205
   13      H       5.6643362835     0.1385502927    -0.0078104237
   14      H       4.4224464355    -1.2115165176    -0.0057457066
   15      H       3.8741283503     1.8035551153    -0.0017452483
   16      H       1.3478086266     2.3989983503     0.0015083959
   17      H      -3.8740673910    -1.8035857364    -0.0025378787
   18      H      -4.4225103160     1.2114844689    -0.0048202397
   19      H      -5.6643511630    -0.1386483535    -0.0076070574
   20      H      -1.3478150085    -2.3989758164     0.0015227646
 ----------------------------------------------------------------

    8   -1182.2057175134      9.36e-06  Convergence criterion met
 Total energy in the final basis set =    -1182.2057175134

                    Orbital Energies (a.u.)
 --------------------------------------------------------------

 Alpha MOs
 -- Occupied --
-88.9083 -88.9083 -10.2251 -10.2251 -10.2200 -10.2194 -10.2020 -10.2020
-10.2012 -10.2012 -10.1845 -10.1845  -7.9697  -7.9697  -5.9339  -5.9339
 -5.9304  -5.9304  -5.9261  -5.9261  -0.9139  -0.8584  -0.7986  -0.7744
 -0.7662  -0.7130  -0.6951  -0.6341  -0.5884  -0.5583  -0.5475  -0.5228
 -0.4958  -0.4867  -0.4462  -0.4428  -0.4173  -0.4126  -0.3968  -0.3891
 -0.3766  -0.3734  -0.3625  -0.3512  -0.3310  -0.3080  -0.2911  -0.2580
 -0.2307  -0.1942

          Ground-State Mulliken Net Atomic Charges

     Atom                 Charge (a.u.)
  ----------------------------------------
      1 C                    -0.376415
      2 C                    -0.051784
      3 C                    -0.139765
      4 C                    -0.158108
      5 C                    -0.118693
      6 S                     0.247042
      7 C                    -0.139761
      8 C                    -0.051786
      9 C                    -0.376413
     10 C                    -0.158112
     11 C                    -0.118687
     12 S                     0.247036
     13 H                     0.148747
     14 H                     0.157721
     15 H                     0.139988
     16 H                     0.151269
     17 H                     0.139987
     18 H                     0.157718
     19 H                     0.148747
     20 H                     0.151268
  ----------------------------------------
  Sum of atomic charges =     0.000000

                    Cartesian Multipole Moments
 -----------------------------------------------------------------
    Charge (ESU x 10^10)
                 0.0000
    Dipole Moment (Debye)
         X       0.0000      Y       0.0000      Z      -0.0038
       Tot       0.0038
    Quadrupole Moments (Debye-Ang)
        XX     -74.1875     XY       4.5801     YY     -76.2615
        XZ       0.0009     YZ       0.0015     ZZ     -89.1606

 Total job time:  26.20s(wall), 26.10s(cpu)
        *  Thank you very much for using Q-Chem.  Have a nice day.  *
