 Q-Chem 5.2, Q-Chem, Inc., Pleasanton, CA (2019)
 Q-Chem 5.2.1 for Intel X86 EM64T Linux

User input:
--------------------------------------------------------------
$molecule
0 1
C         4.11033058660000   -0.13606286170000    0.03842758970000
C         3.08516455900000    0.70812411940000    0.01185778380000
C         1.67318510790000    0.35544350220000    0.00055819990000
C         0.71897440090000    1.37314727400000   -0.01028541270000
C        -0.62818012360000    1.08060689070000   -0.01808008640000
F        -1.47639603080000    2.12825608350000   -0.03694623420000
C        -1.12857638820000   -0.22587282710000   -0.01715537670000
C        -2.53162396120000   -0.61339313650000   -0.02840637600000
C        -3.58838103470000    0.18182755650000    0.10017887490000
C        -0.13768531780000   -1.21796620830000   -0.01305797280000
F        -0.52554485270000   -2.51129083910000   -0.01559204430000
C         1.21403220640000   -0.96215517280000   -0.00224334320000
H         5.12552157460000    0.22085270390000    0.04558492820000
H         3.98727658680000   -1.20504445890000    0.05482819540000
H         3.28081340700000    1.77274805010000   -0.00173541140000
H         1.02035879090000    2.40951533750000   -0.01335755030000
H        -2.68746752740000   -1.67823764430000   -0.14466976400000
H        -3.51835530630000    1.24605264170000    0.23233561340000
H        -4.58354955870000   -0.22881188040000    0.07867901160000
H         1.89582431330000   -1.79625008850000    0.00226585320000
$end

$rem
BASIS = 6-31G*
GUI = 2
METHOD = B3LYP
PRINT_ORBITALS false
MOLDEN_FORMAT false
--------------------------------------------------------------

             Standard Nuclear Orientation (Angstroms)
    I     Atom           X                Y                Z
 ----------------------------------------------------------------
    1      C       4.0716351978    -0.1724787171     0.0388864493
    2      C       3.0527313227     0.6791996556     0.0105696580
    3      C       1.6381967287     0.3369170912    -0.0009106439
    4      C       0.6915173800     1.3616076448    -0.0137209731
    5      C      -0.6577525412     1.0789910881    -0.0217526129
    6      F      -1.4982154119     2.1328333419    -0.0425769969
    7      C      -1.1677638597    -0.2237630126    -0.0191568476
    8      C      -2.5736235978    -0.6009500320    -0.0305329807
    9      C      -3.6245536118     0.2022246423     0.0963613773
   10      C      -0.1842131442    -1.2231241241    -0.0131121797
   11      F      -0.5815921803    -2.5135578726    -0.0139388258
   12      C       1.1693475095    -0.9772650564    -0.0020043901
   13      H       5.0894253650     0.1769564710     0.0460219546
   14      H       3.9406986327    -1.2404992154     0.0567960234
   15      H       3.2562272830     1.7423317996    -0.0044901884
   16      H       1.0005326718     2.3957210541    -0.0181659592
   17      H      -2.7372541396    -1.6647872400    -0.1453095414
   18      H      -3.5467508242     1.2660982258     0.2269897151
   19      H      -4.6227108439    -0.2011015585     0.0749721693
   20      H       1.8449718803    -1.8163538390     0.0040670908
 ----------------------------------------------------------------

    9    -585.5132174847      2.20e-06  Convergence criterion met
 Total energy in the final basis set =     -585.5132174847

                    Orbital Energies (a.u.)
 --------------------------------------------------------------

 Alpha MOs
 -- Occupied --
-24.7159 -24.7138 -10.2821 -10.2810 -10.2148 -10.2128 -10.2015 -10.1979
-10.1969 -10.1963 -10.1914 -10.1816  -1.2280  -1.2256  -0.8833  -0.8205
 -0.7784  -0.7591  -0.7302  -0.6567  -0.6295  -0.5910  -0.5846  -0.5356
 -0.5296  -0.5036  -0.4926  -0.4764  -0.4667  -0.4601  -0.4526  -0.4338
 -0.4223  -0.4079  -0.3868  -0.3748  -0.3736  -0.3659  -0.3423  -0.3279
 -0.2764  -0.2509  -0.2205

          Ground-State Mulliken Net Atomic Charges

     Atom                 Charge (a.u.)
  ----------------------------------------
      1 C                    -0.346214
      2 C                    -0.115907
      3 C                     0.194378
      4 C                    -0.281764
      5 C                     0.334981
      6 F                    -0.289182
      7 C                     0.018614
      8 C                    -0.103437
      9 C                    -0.352623
     10 C                     0.322066
     11 F                    -0.291015
     12 C                    -0.265557
     13 H                     0.151342
     14 H                     0.149019
     15 H                     0.135132
     16 H                     0.145126
     17 H                     0.147186
     18 H                     0.160995
     19 H                     0.143840
     20 H                     0.143022
  ----------------------------------------
  Sum of atomic charges =     0.000000

                    Cartesian Multipole Moments
 -----------------------------------------------------------------
    Charge (ESU x 10^10)
                -0.0000
    Dipole Moment (Debye)
         X       1.2984      Y       0.2870      Z       0.0259
       Tot       1.3300
    Quadrupole Moments (Debye-Ang)
        XX     -59.4784     XY       1.1031     YY     -66.6700
        XZ      -0.0608     YZ       0.2935     ZZ     -70.7961

 Total job time:  26.62s(wall), 26.32s(cpu)
        *  Thank you very much for using Q-Chem.  Have a nice day.  *
