 Q-Chem 5.2, Q-Chem, Inc., Pleasanton, CA (2019)
 Q-Chem 5.2.1 for Intel X86 EM64T Linux

User input:
--------------------------------------------------------------
$molecule
0 1
C         2.17725526800000    2.59125057040000    0.00381591380000
N         2.34145399840000    1.16684274210000    0.00147716490000
C         3.50479389940000    0.46123271140000   -0.00140387960000
N         3.34820760460000   -0.82710503780000   -0.00329356570000
C         1.33696040880000    0.23116268920000    0.00127265330000
C         1.99340005540000   -1.02462534350000   -0.00166877680000
C         1.23984522190000   -2.19446161780000   -0.00222636270000
C        -0.12974236770000   -2.07434390820000    0.00010474570000
C        -0.78437018170000   -0.82529747990000    0.00265625560000
C        -2.23799382720000   -0.83436329190000    0.00462261770000
C        -3.07200581260000    0.19498443480000   -0.00035565780000
F        -2.77521944580000    1.49232186170000   -0.00832455400000
F        -4.39860275490000    0.06071691100000    0.00197175380000
C        -0.04044259510000    0.35108355760000    0.00343495060000
H         3.15681177540000    3.06617110440000    0.00391474460000
H         1.62597187450000    2.90921925720000    0.89184324270000
H         1.62474933320000    2.91205005810000   -0.88243769700000
H         4.46211545680000    0.94745776350000   -0.00197042000000
H         1.72385517460000   -3.15736648780000   -0.00435176360000
H        -0.73633968560000   -2.96790298490000   -0.00028196010000
H        -2.71366182090000   -1.80441231870000    0.01018368940000
H        -0.51021012280000    1.32033511980000    0.00591247120000
$end

$rem
BASIS = 6-31G*
GUI = 2
METHOD = B3LYP
PRINT_ORBITALS false
MOLDEN_FORMAT false
--------------------------------------------------------------

             Standard Nuclear Orientation (Angstroms)
    I     Atom           X                Y                Z
 ----------------------------------------------------------------
    1      C      -2.1801608753    -2.5147355750     0.0033949271
    2      N      -2.2989462899    -1.0858234819     0.0012479857
    3      C      -3.4392417619    -0.3435484696    -0.0015059078
    4      N      -3.2417349004     0.9391537787    -0.0032311708
    5      C      -1.2651845052    -0.1825842363     0.0011364338
    6      C      -1.8813276659     1.0934585719    -0.0016206980
    7      C      -1.0909257802     2.2387213295    -0.0020471421
    8      C       0.2741455471     2.0750785448     0.0002275263
    9      C       0.8886923272     0.8058316374     0.0025956765
   10      C       2.3418682591     0.7686326344     0.0045200560
   11      C       3.1426998276    -0.2867345605    -0.0006180748
   12      F       2.8047772503    -1.5739689135    -0.0087484113
   13      F       4.4728978120    -0.1947528320     0.0016875575
   14      C       0.1077045378    -0.3462789741     0.0032420848
   15      H      -3.1743350481    -2.9582422653     0.0034605248
   16      H      -1.6392530622    -2.8502045086     0.8913641467
   17      H      -1.6381664862    -2.8528383767    -0.8829171848
   18      H      -4.4115520177    -0.7990614669    -0.0021078252
   19      H      -1.5440472469     3.2165418334    -0.0040318021
   20      H       0.9088721399     2.9488807816    -0.0000599300
   21      H       2.8481662045     1.7230519728     0.0101943038
   22      H       0.5463888259    -1.3299897526     0.0055784546
 ----------------------------------------------------------------

    9    -695.0466908864      7.06e-06  Convergence criterion met
 Total energy in the final basis set =     -695.0466908864

                    Orbital Energies (a.u.)
 --------------------------------------------------------------

 Alpha MOs
 -- Occupied --
-24.7421 -24.7307 -14.3953 -14.3100 -10.3518 -10.2474 -10.2439 -10.2184
-10.2032 -10.2031 -10.2001 -10.1906 -10.1844 -10.1837  -1.2817  -1.2210
 -1.0302  -0.9010  -0.8580  -0.7982  -0.7609  -0.7299  -0.7257  -0.6524
 -0.6276  -0.6030  -0.5855  -0.5665  -0.5334  -0.5216  -0.5157  -0.5053
 -0.4871  -0.4687  -0.4462  -0.4437  -0.4383  -0.4342  -0.4211  -0.4147
 -0.4145  -0.3994  -0.3759  -0.3563  -0.3557  -0.3017  -0.2778  -0.2664
 -0.2288  -0.2058

          Ground-State Mulliken Net Atomic Charges

     Atom                 Charge (a.u.)
  ----------------------------------------
      1 C                    -0.329833
      2 N                    -0.483696
      3 C                     0.206311
      4 N                    -0.502643
      5 C                     0.329785
      6 C                     0.231980
      7 C                    -0.170936
      8 C                    -0.211497
      9 C                     0.179753
     10 C                    -0.300057
     11 C                     0.539180
     12 F                    -0.241101
     13 F                    -0.251514
     14 C                    -0.246744
     15 H                     0.175392
     16 H                     0.179692
     17 H                     0.179716
     18 H                     0.155420
     19 H                     0.140320
     20 H                     0.124180
     21 H                     0.159357
     22 H                     0.136935
  ----------------------------------------
  Sum of atomic charges =     0.000000

                    Cartesian Multipole Moments
 -----------------------------------------------------------------
    Charge (ESU x 10^10)
                 0.0000
    Dipole Moment (Debye)
         X      -0.3589      Y      -2.7911      Z       0.0100
       Tot       2.8141
    Quadrupole Moments (Debye-Ang)
        XX     -82.2997     XY      14.2185     YY     -69.2011
        XZ      -0.0040     YZ      -0.0069     ZZ     -79.9840

 Total job time:  32.87s(wall), 32.76s(cpu)
        *  Thank you very much for using Q-Chem.  Have a nice day.  *
