 Q-Chem 5.2, Q-Chem, Inc., Pleasanton, CA (2019)
 Q-Chem 5.2.1 for Intel X86 EM64T Linux

User input:
--------------------------------------------------------------
$molecule
0 1
C         2.17831060070000    3.00836549960000    0.68855085100000
C         1.12846903500000    2.64115058210000   -0.03078340310000
C         0.57539004660000    1.28822336640000   -0.05262621900000
C        -0.80549339570000    1.11736982760000   -0.00603241370000
C        -1.38256602180000   -0.14227568370000    0.05976740980000
C        -2.85678077330000   -0.22921348420000    0.25833621340000
O        -3.40450689080000   -0.86841477050000    1.11874412030000
O        -3.51164395690000    0.55270821360000   -0.61319199740000
C        -4.92444640640000    0.59229527830000   -0.47282825840000
C        -0.57546913830000   -1.28809875300000    0.05633203410000
C        -1.12831708510000   -2.64105386800000    0.03356322150000
C        -2.17919865220000   -3.00777883920000   -0.68455488330000
C         0.80548175130000   -1.11723983990000    0.01019057530000
C         1.38256058940000    0.14237544300000   -0.05643252780000
C         2.85631049690000    0.23002431530000   -0.25776831930000
O         3.40199950270000    0.87424909660000   -1.11577620540000
O         3.51364551860000   -0.55780717820000    0.60646331360000
C         4.92608853270000   -0.59476495310000    0.46135586100000
H         2.53648387720000    4.02313941350000    0.69024453590000
H         2.71340256560000    2.31117448790000    1.31218430400000
H         0.58123090630000    3.37484330230000   -0.60811548220000
H        -1.44334195170000    1.98888169940000    0.01047631130000
H        -5.19756964940000    1.05844968390000    0.47621922300000
H        -5.33677905630000   -0.41865936650000   -0.49614087270000
H        -5.29754904400000    1.17910681060000   -1.30824523190000
H        -0.57973770560000   -3.37548486940000    0.60871416030000
H        -2.71533363660000   -2.31030297670000   -1.30694073320000
H        -2.53676679660000   -4.02277829670000   -0.68699438600000
H         1.44335850080000   -1.98872371610000   -0.00628530870000
H         5.29885923910000   -1.22200861980000    1.26688647880000
H         5.34150852770000    0.41260470470000    0.53328061540000
H         5.19621698660000   -1.01451371670000   -0.50983905120000
$end

$rem
BASIS = 6-31G*
GUI = 2
METHOD = B3LYP
PRINT_ORBITALS false
MOLDEN_FORMAT false
--------------------------------------------------------------

             Standard Nuclear Orientation (Angstroms)
    I     Atom           X                Y                Z
 ----------------------------------------------------------------
    1      C       2.6232773392     2.6462086539     0.6209342232
    2      C       1.5086706103     2.4433090439    -0.0653160706
    3      C       0.7593753687     1.1881921273    -0.0701836848
    4      C      -0.6294345365     1.2250968555     0.0195162805
    5      C      -1.3858087115     0.0653665826     0.1030210611
    6      C      -2.8496366300     0.1984287329     0.3475597567
    7      O      -3.4598330329    -0.3560903785     1.2245163437
    8      O      -3.4070022154     1.0735873995    -0.5028811087
    9      C      -4.7930413242     1.3228769834    -0.3184084321
   10      C      -0.7593398522    -1.1880395035     0.0740790677
   11      C      -1.5084395106    -2.4432139422     0.0682786797
   12      C      -2.6239633761    -2.6454798636    -0.6167234280
   13      C       0.6295514809    -1.2249512021    -0.0151708796
   14      C       1.3859018620    -0.0652477067    -0.0994987388
   15      C       2.8492911090    -0.1975238114    -0.3467883660
   16      O       3.4582983907     0.3622547088    -1.2212812086
   17      O       3.4079919362    -1.0788591035     0.4962807870
   18      C       4.7939219289    -1.3254719590     0.3070785865
   19      H       3.1288331957     3.5961479102     0.6116742986
   20      H       3.0672693400     1.8739207347     1.2273663089
   21      H       1.0595542214     3.2532749196    -0.6250808928
   22      H      -1.1291882731     2.1819453911     0.0561679336
   23      H      -4.9640656367     1.8199082730     0.6388260947
   24      H      -5.3522205665     0.3849025457    -0.3290627803
   25      H      -5.0999580703     1.9628878741    -1.1416113494
   26      H      -1.0581751327    -3.2540992791     0.6258213186
   27      H      -3.0689051483    -1.8727607561    -1.2218758441
   28      H      -3.1289778802    -3.5957287809    -0.6082279290
   29      H       1.1293382754    -2.1817764245    -0.0517905824
   30      H       5.0935508370    -2.0052655801     1.1004103856
   31      H       5.3571180976    -0.3917415514     0.3662239288
   32      H       4.9682315641    -1.7760622330    -0.6721877306
 ----------------------------------------------------------------

    9    -842.7761069884      2.79e-06  Convergence criterion met
 Total energy in the final basis set =     -842.7761069884

                    Orbital Energies (a.u.)
 --------------------------------------------------------------

 Alpha MOs
 -- Occupied --
-19.1959 -19.1958 -19.1334 -19.1333 -10.3149 -10.3148 -10.2416 -10.2415
-10.2108 -10.2108 -10.2100 -10.2099 -10.2019 -10.2019 -10.1929 -10.1929
-10.1839 -10.1838  -1.1114  -1.1113  -1.0186  -1.0185  -0.8853  -0.8208
 -0.7921  -0.7760  -0.7445  -0.7296  -0.7175  -0.6583  -0.6299  -0.5977
 -0.5903  -0.5736  -0.5523  -0.5211  -0.5162  -0.5066  -0.4841  -0.4803
 -0.4774  -0.4697  -0.4647  -0.4555  -0.4435  -0.4377  -0.4248  -0.4207
 -0.4016  -0.3987  -0.3977  -0.3832  -0.3756  -0.3588  -0.3586  -0.3575
 -0.3442  -0.3170  -0.3063  -0.3021  -0.2763  -0.2755  -0.2659  -0.2571
 -0.2251

          Ground-State Mulliken Net Atomic Charges

     Atom                 Charge (a.u.)
  ----------------------------------------
      1 C                    -0.322362
      2 C                    -0.118527
      3 C                     0.131962
      4 C                    -0.230540
      5 C                     0.062630
      6 C                     0.505282
      7 O                    -0.462503
      8 O                    -0.438675
      9 C                    -0.220770
     10 C                     0.132113
     11 C                    -0.118572
     12 C                    -0.322736
     13 C                    -0.230755
     14 C                     0.062073
     15 C                     0.506079
     16 O                    -0.462816
     17 O                    -0.438895
     18 C                    -0.220378
     19 H                     0.148744
     20 H                     0.148864
     21 H                     0.141303
     22 H                     0.148572
     23 H                     0.168387
     24 H                     0.171530
     25 H                     0.166319
     26 H                     0.141260
     27 H                     0.149040
     28 H                     0.148760
     29 H                     0.148721
     30 H                     0.166250
     31 H                     0.170466
     32 H                     0.169174
  ----------------------------------------
  Sum of atomic charges =     0.000000

                    Cartesian Multipole Moments
 -----------------------------------------------------------------
    Charge (ESU x 10^10)
                 0.0000
    Dipole Moment (Debye)
         X      -0.0002      Y      -0.0065      Z      -0.0107
       Tot       0.0126
    Quadrupole Moments (Debye-Ang)
        XX     -88.9297     XY      -9.5768     YY     -91.9658
        XZ      13.4147     YZ       2.3364     ZZ    -110.3385

 Total job time:  64.18s(wall), 63.84s(cpu)
        *  Thank you very much for using Q-Chem.  Have a nice day.  *
