 Q-Chem 5.4, Q-Chem, Inc., Pleasanton, CA (2021)
 Q-Chem 5.4.2 for Intel X86 EM64T Linux

User input:
--------------------------------------------------------------
$molecule
0 1
C           -2.11278083110000       -2.70580376940000        0.55133369300000
C           -0.93255324020000       -2.74024506610000       -0.05416931320000
C            0.04170397140000       -1.65300377440000       -0.10044959990000
C            1.39147913100000       -1.97956561800000       -0.00769551800000
C            2.38278635610000       -1.01836530950000        0.02772840330000
C            2.03407949930000        0.32688693730000       -0.04927962970000
O            2.91062462320000        1.36489787280000       -0.02905013840000
C            4.28362549170000        1.08553309680000        0.09990007770000
C            0.69060756900000        0.67122816720000       -0.17914299060000
C           -0.30804123370000       -0.29274367650000       -0.20699973840000
C           -1.69650629310000        0.09245205850000       -0.43708714830000
C           -2.26887074170000        1.22860265380000       -0.07559458040000
F           -1.72856309010000        2.22350926620000        0.61940978160000
F           -3.53949454210000        1.53103230380000       -0.34659123470000
H           -2.76262136360000       -3.56438017100000        0.56240573030000
H           -2.46177169790000       -1.83666409290000        1.08260292370000
H           -0.60210506380000       -3.66305442100000       -0.51633003050000
H            1.67129088040000       -3.02127135590000        0.05923963620000
H            3.41282128160000       -1.32652635450000        0.11083941420000
H            4.78144948420000        2.05378775280000        0.10435886820000
H            4.65467222810000        0.49292365550000       -0.74268734930000
H            4.50171198730000        0.56315200840000        1.03692846850000
H            0.45155271480000        1.71735569420000       -0.27696500420000
H           -2.32494314780000       -0.61336093080000       -0.96013761720000
$end

$rem
BASIS = 6-31G*
GUI = 2
METHOD = B3LYP
PRINT_ORBITALS false
MOLDEN_FORMAT false
$end
--------------------------------------------------------------

             Standard Nuclear Orientation (Angstroms)
    I     Atom           X                Y                Z
 ----------------------------------------------------------------
    1      C       2.2687546272     2.5819786832     0.5349230238
    2      C       1.0919566807     2.6458982470    -0.0748459014
    3      C       0.0861887936     1.5874887934    -0.1150079694
    4      C      -1.2536451396     1.9545016987    -0.0296528436
    5      C      -2.2729915661     1.0232914976     0.0107368325
    6      C      -1.9638958340    -0.3322789946    -0.0534409338
    7      O      -2.8707498660    -1.3437798742    -0.0271916655
    8      C      -4.2353052550    -1.0229401248     0.0946880572
    9      C      -0.6307709769    -0.7172018956    -0.1757711352
   10      C       0.3959719182     0.2166283299    -0.2085931162
   11      C       1.7731778898    -0.2113335679    -0.4306370697
   12      C       2.3106320391    -1.3606565420    -0.0573866811
   13      F       1.7390292791    -2.3330794446     0.6443729446
   14      F       3.5726190050    -1.7027754644    -0.3214534583
   15      H       2.9436109153     3.4210875331     0.5407602695
   16      H       2.5902821386     1.7076119447     1.0748751179
   17      H       0.7903313714     3.5739675738    -0.5460943803
   18      H      -1.5028022584     3.0045499460     0.0273136630
   19      H      -3.2937389326     1.3624014303     0.0876906163
   20      H      -4.7614971227    -1.9760210914     0.1058449644
   21      H      -4.5860657835    -0.4270478069    -0.7542492783
   22      H      -4.4408104829    -0.4861739845     1.0264152910
   23      H      -0.4223867025    -1.7707386394    -0.2637228052
   24      H       2.4238021661     0.4710395201    -0.9576490895
 ----------------------------------------------------------------

    9    -700.0324108229      5.57e-06  Convergence criterion met
 Total energy in the final basis set =     -700.0324108229

                    Orbital Energies (a.u.)
 --------------------------------------------------------------

 Alpha MOs
 -- Occupied --
-24.7351 -24.7274 -19.1800 -10.3488 -10.2473 -10.2419 -10.2050 -10.1945
-10.1908 -10.1901 -10.1900 -10.1869 -10.1812 -10.1779  -1.2770  -1.2166
 -1.0710  -0.8694  -0.8037  -0.7915  -0.7490  -0.7310  -0.6958  -0.6435
 -0.6128  -0.6049  -0.5739  -0.5543  -0.5401  -0.5126  -0.5084  -0.4906
 -0.4771  -0.4735  -0.4444  -0.4422  -0.4347  -0.4325  -0.4267  -0.4122
 -0.3999  -0.3956  -0.3825  -0.3633  -0.3489  -0.3324  -0.3284  -0.2910
 -0.2728  -0.2280  -0.2065

          Ground-State Mulliken Net Atomic Charges

     Atom                 Charge (a.u.)
  ----------------------------------------
      1 C                    -0.344965
      2 C                    -0.139201
      3 C                     0.103429
      4 C                    -0.198827
      5 C                    -0.192702
      6 C                     0.383873
      7 O                    -0.503110
      8 C                    -0.215501
      9 C                    -0.246760
     10 C                     0.133962
     11 C                    -0.328005
     12 C                     0.550923
     13 F                    -0.237716
     14 F                    -0.251327
     15 H                     0.141991
     16 H                     0.156633
     17 H                     0.132204
     18 H                     0.129674
     19 H                     0.130840
     20 H                     0.171098
     21 H                     0.151222
     22 H                     0.152026
     23 H                     0.142762
     24 H                     0.177476
  ----------------------------------------
  Sum of atomic charges =     0.000000

                    Cartesian Multipole Moments
 -----------------------------------------------------------------
    Charge (ESU x 10^10)
                 0.0000
    Dipole Moment (Debye)
         X      -2.1605      Y       1.4642      Z      -0.1663
       Tot       2.6152
    Quadrupole Moments (Debye-Ang)
        XX     -67.5253     XY       2.3528     YY     -77.4723
        XZ      -0.4760     YZ      -0.4671     ZZ     -81.2010

 Total job time:  46.56s(wall), 44.00s(cpu)
        *  Thank you very much for using Q-Chem.  Have a nice day.  *
