 Q-Chem 5.2, Q-Chem, Inc., Pleasanton, CA (2019)
 Q-Chem 5.2.1 for Intel X86 EM64T Linux

User input:
--------------------------------------------------------------
$molecule
0 1
C         3.31719792210000    3.13973066780000    0.93959286650000
C         3.49867476230000    1.86969284730000    0.59306082450000
C         2.44964320220000    0.92937121560000    0.27112662130000
C         1.09534228390000    1.14280655660000    0.31376349090000
N         0.42250036660000    0.01445394190000   -0.06211602700000
Si       -1.34779458500000   -0.13400261780000   -0.07280105870000
C        -1.92986174690000    0.02076927010000    1.76254617440000
C        -0.94886557350000   -0.65488080600000    2.72356989430000
C        -2.12202602100000    1.47096323880000    2.21053912670000
C        -1.90684206840000    1.36261647980000   -1.14831548090000
C        -1.28540805610000    1.30246038520000   -2.54434565740000
C        -3.41944807960000    1.54894486940000   -1.25959436460000
C        -1.74399704550000   -1.85402082890000   -0.84050792420000
C        -1.51808822180000   -3.00741034550000    0.13813438530000
C        -3.17061110150000   -1.94425573690000   -1.38001313660000
C         1.36037754410000   -0.93572634600000   -0.34785176350000
C         2.62284724840000   -0.43202110530000   -0.16002842280000
C         3.87997491710000   -1.11753430610000   -0.35519838540000
C         4.01831712600000   -2.39629521610000   -0.68928157320000
H         4.14750225270000    3.78597896190000    1.16721879000000
H         2.33772840400000    3.58124909510000    1.00716563200000
H         4.50762232240000    1.48208764970000    0.53885813550000
H         0.55665809270000    2.02804386400000    0.58300153110000
H        -2.89737879980000   -0.48280425550000    1.86412538330000
H         0.02853387670000   -0.18194673230000    2.66063197890000
H        -0.82922470790000   -1.70991227670000    2.49967337090000
H        -1.30432186820000   -0.56360638250000    3.74897218120000
H        -1.17624022810000    2.00601201870000    2.18230641690000
H        -2.48947077630000    1.49996287520000    3.23548583190000
H        -2.83417092370000    1.99714519000000    1.58193614580000
H        -1.51189021240000    2.26110862020000   -0.66207682870000
H        -1.64329927270000    0.43286532950000   -3.09056239940000
H        -0.20159084130000    1.24447956540000   -2.48194911010000
H        -1.54758815920000    2.19179179460000   -3.11548524900000
H        -3.86435387300000    0.77158140660000   -1.87283168790000
H        -3.64660975900000    2.50836143960000   -1.72261739130000
H        -3.89771047700000    1.52091145570000   -0.28426673380000
H        -1.06914142370000   -2.00312785520000   -1.69000704500000
H        -2.22957235080000   -2.95342595520000    0.95867060880000
H        -0.51307827550000   -2.99217482160000    0.55107653300000
H        -1.66176577310000   -3.96215516240000   -0.36704060850000
H        -3.89556514690000   -1.70139397580000   -0.60678280740000
H        -3.37638725120000   -2.95505036250000   -1.73025327080000
H        -3.31619404670000   -1.26742262600000   -2.21624739170000
H         1.06555360610000   -1.90769979740000   -0.68345027120000
H         4.76834893490000   -0.51720376810000   -0.20809149230000
H         3.17194252660000   -3.04298207620000   -0.84480801510000
H         4.98924460020000   -2.84302057670000   -0.81827341180000
$end

$rem
BASIS = 6-31G*
GUI = 2
METHOD = B3LYP
PRINT_ORBITALS false
MOLDEN_FORMAT false
--------------------------------------------------------------

             Standard Nuclear Orientation (Angstroms)
    I     Atom           X                Y                Z
 ----------------------------------------------------------------
    1      C       3.7353420486    -2.8675626115     0.0542413834
    2      C       3.7617968074    -1.5394725761     0.0928596293
    3      C       2.6023950509    -0.6771239877     0.1142160177
    4      C       1.2839901657    -1.0491076639     0.0439292625
    5      N       0.4746518959     0.0507139010     0.0943809364
    6      Si     -1.2960903559    -0.0073471512    -0.0367622204
    7      C      -1.7013340093    -0.6541083129    -1.8112293419
    8      C      -0.7124145386    -0.1142760302    -2.8471069866
    9      C      -1.7121443246    -2.1811193886    -1.9050784341
   10      C      -1.7963266808    -1.2642066806     1.3340776050
   11      C      -1.3052841937    -0.8072488079     2.7084014458
   12      C      -3.2874947669    -1.5921666464     1.3968327143
   13      C      -1.9223148985     1.7873257450     0.2662309899
   14      C      -1.7272020269     2.6972222346    -0.9474832636
   15      C      -3.3917813466     1.8366350247     0.6817701944
   16      C       1.2875148096     1.1429050641     0.1967207503
   17      C       2.6045057488     0.7580373396     0.2121490299
   18      C       3.7674778942     1.6102813089     0.3099531394
   19      C       3.7513749665     2.9389052728     0.3318315850
   20      H       4.6411210217    -3.4491249659     0.0399103044
   21      H       2.8129821324    -3.4223908343     0.0374198133
   22      H       4.7197870364    -1.0364257862     0.1115558336
   23      H       0.8592056591    -2.0287712624    -0.0343792763
   24      H      -2.7011230918    -0.3032567196    -2.0892919768
   25      H       0.2974863888    -0.4434741449    -2.6132988973
   26      H      -0.7158235121     0.9703977325    -2.8788276654
   27      H      -0.9683560966    -0.4837408510    -3.8391350673
   28      H      -0.7245661272    -2.5820534281    -1.6917096249
   29      H      -1.9860864633    -2.4917454832    -2.9124708648
   30      H      -2.4206597459    -2.6236545951    -1.2113003683
   31      H      -1.2755242428    -2.2000266873     1.1044935079
   32      H      -1.7916447483     0.1190083956     3.0052775426
   33      H      -0.2309419175    -0.6410981677     2.6985273325
   34      H      -1.5273017790    -1.5619794874     3.4613549560
   35      H      -3.8568650341    -0.7492450100     1.7757730086
   36      H      -3.4587158330    -2.4358662527     2.0641611401
   37      H      -3.6811215127    -1.8488676663     0.4170636845
   38      H      -1.3402825773     2.2081535156     1.0929438399
   39      H      -2.3573066603     2.3707870263    -1.7713836702
   40      H      -0.6939093024     2.7014311593    -1.2837670146
   41      H      -2.0059565673     3.7207186228    -0.6982168837
   42      H      -4.0208605043     1.3374211367    -0.0513534325
   43      H      -3.7243397457     2.8707563494     0.7637198591
   44      H      -3.5415634540     1.3626082322     1.6468863033
   45      H       0.8716981236     2.1258653432     0.2685919983
   46      H       4.7194778045     1.0986089272     0.3659275356
   47      H       2.8357788185     3.5021352116     0.2752801785
   48      H       4.6595094061     3.5121767960     0.4063581090
 ----------------------------------------------------------------

    9   -1009.5140799930      1.95e-06  Convergence criterion met
 Total energy in the final basis set =    -1009.5140799930

                    Orbital Energies (a.u.)
 --------------------------------------------------------------

 Alpha MOs
 -- Occupied --
-66.1437 -14.3566 -10.1938 -10.1937 -10.1859 -10.1824 -10.1811 -10.1807
-10.1802 -10.1780 -10.1778 -10.1774 -10.1772 -10.1735 -10.1706 -10.1680
-10.1667 -10.1632 -10.1622  -5.2865  -3.6473  -3.6444  -3.6441  -0.9659
 -0.8070  -0.7953  -0.7853  -0.7818  -0.7716  -0.7195  -0.7034  -0.6925
 -0.6865  -0.6827  -0.6206  -0.5991  -0.5926  -0.5804  -0.5775  -0.5450
 -0.5218  -0.5159  -0.4773  -0.4652  -0.4619  -0.4549  -0.4496  -0.4427
 -0.4325  -0.4280  -0.4208  -0.4158  -0.4099  -0.4072  -0.4036  -0.4006
 -0.3969  -0.3901  -0.3861  -0.3817  -0.3628  -0.3508  -0.3497  -0.3461
 -0.3451  -0.3419  -0.3380  -0.3332  -0.3323  -0.3247  -0.3058  -0.2838
 -0.2766  -0.2696  -0.1978  -0.1913

          Ground-State Mulliken Net Atomic Charges

     Atom                 Charge (a.u.)
  ----------------------------------------
      1 C                    -0.360537
      2 C                    -0.095406
      3 C                     0.043761
      4 C                    -0.064461
      5 N                    -0.510280
      6 Si                    0.910735
      7 C                    -0.287096
      8 C                    -0.461060
      9 C                    -0.461212
     10 C                    -0.290929
     11 C                    -0.462039
     12 C                    -0.464366
     13 C                    -0.292196
     14 C                    -0.462878
     15 C                    -0.463095
     16 C                    -0.062017
     17 C                     0.041546
     18 C                    -0.095168
     19 C                    -0.361017
     20 H                     0.134250
     21 H                     0.127670
     22 H                     0.124472
     23 H                     0.144403
     24 H                     0.136699
     25 H                     0.168770
     26 H                     0.150572
     27 H                     0.137830
     28 H                     0.150317
     29 H                     0.143401
     30 H                     0.149430
     31 H                     0.147541
     32 H                     0.143847
     33 H                     0.172026
     34 H                     0.141015
     35 H                     0.149904
     36 H                     0.144888
     37 H                     0.148356
     38 H                     0.150437
     39 H                     0.150666
     40 H                     0.159511
     41 H                     0.143472
     42 H                     0.149489
     43 H                     0.145848
     44 H                     0.155621
     45 H                     0.142563
     46 H                     0.123768
     47 H                     0.127460
     48 H                     0.133489
  ----------------------------------------
  Sum of atomic charges =     0.000000

                    Cartesian Multipole Moments
 -----------------------------------------------------------------
    Charge (ESU x 10^10)
                 0.0000
    Dipole Moment (Debye)
         X      -3.0247      Y       0.0952      Z      -0.1083
       Tot       3.0281
    Quadrupole Moments (Debye-Ang)
        XX    -126.3105     XY      -0.9396     YY    -122.9995
        XZ       0.2693     YZ       0.4560     ZZ    -129.8547

 Total job time:  125.01s(wall), 124.68s(cpu)
        *  Thank you very much for using Q-Chem.  Have a nice day.  *
