 Q-Chem 5.2, Q-Chem, Inc., Pleasanton, CA (2019)
 Q-Chem 5.2.1 for Intel X86 EM64T Linux

User input:
--------------------------------------------------------------
$molecule
0 1
C         4.36384648610000   -1.47557421170000    0.14772167290000
C         3.09985774340000   -1.86061895580000    0.01767915460000
C         1.91721632110000   -1.00732823410000    0.02200926400000
C         1.98734687280000    0.38169287870000    0.12772641720000
C         0.86436127110000    1.21478405850000    0.12153456220000
C         1.04040092650000    2.66430757190000    0.19824299730000
C         0.28189136960000    3.56579595740000   -0.41108038480000
C        -0.37478450930000    0.58726450050000    0.04689985550000
C        -0.46960053860000   -0.81108569170000   -0.05501740970000
C         0.65723498150000   -1.60847332790000   -0.08027342720000
C        -1.89041936790000   -1.17072770890000   -0.10002632010000
O        -2.40925031180000   -2.25080727730000   -0.20755978110000
C        -2.63000538340000    0.18853674220000    0.03266935680000
O        -3.81407787650000    0.39642743310000    0.07699708820000
N        -1.64634946980000    1.13882459040000    0.09183693060000
H         5.16707515960000   -2.19155437400000    0.13315074380000
H         4.65577954300000   -0.44727849320000    0.27457496790000
H         2.88476099020000   -2.91492364400000   -0.10235933930000
H         2.95533769060000    0.85342703310000    0.20134798170000
H         1.89538418690000    2.98927271650000    0.77772419020000
H        -0.53783344880000    3.29424947760000   -1.05540261390000
H         0.48374355860000    4.61937184210000   -0.32212872420000
H         0.55586201120000   -2.67968933990000   -0.16472666460000
H        -1.82440649400000    2.12009851860000    0.24275308490000
$end

$rem
BASIS = 6-31G*
GUI = 2
METHOD = B3LYP
PRINT_ORBITALS false
MOLDEN_FORMAT false
--------------------------------------------------------------

             Standard Nuclear Orientation (Angstroms)
    I     Atom           X                Y                Z
 ----------------------------------------------------------------
    1      C       4.4956429880     0.6649453621    -0.0558884323
    2      C       3.3247279376     1.2823402663     0.0471626727
    3      C       2.0025174446     0.6678167003     0.0174181175
    4      C       1.8111352934    -0.7098427240    -0.0869918700
    5      C       0.5510881078    -1.3157593246    -0.1049383946
    6      C       0.4516416626    -2.7727258911    -0.1780915812
    7      C      -0.4761798855    -3.5123168723     0.4147367216
    8      C      -0.5484565649    -0.4651658369    -0.0567135931
    9      C      -0.3794670516     0.9263031952     0.0433710995
   10      C       0.8769525287     1.4965543273     0.0928350544
   11      C      -1.7073641020     1.5480493185     0.0580513518
   12      O      -2.0149115640     2.7071035365     0.1546367861
   13      C      -2.6875051904     0.3524696166    -0.0906365373
   14      O      -3.8883312303     0.3718351402    -0.1602996867
   15      N      -1.9001030005    -0.7667531922    -0.1289098715
   16      H       5.4192004501     1.2163466349    -0.0240378872
   17      H       4.5906215471    -0.4004695104    -0.1766318618
   18      H       3.3102419779     2.3587539313     0.1627395196
   19      H       2.6738848513    -1.3562290818    -0.1399762766
   20      H       1.2418111786    -3.2556047816    -0.7392130358
   21      H      -1.2431906076    -3.0883030770     1.0414298339
   22      H      -0.4752127420    -4.5853920048     0.3299565734
   23      H       0.9780596987     2.5679527698     0.1752686055
   24      H      -2.2571520059    -1.6973007729    -0.2837508203
 ----------------------------------------------------------------

    9    -667.8577701452      8.54e-06  Convergence criterion met
 Total energy in the final basis set =     -667.8577701452

                    Orbital Energies (a.u.)
 --------------------------------------------------------------

 Alpha MOs
 -- Occupied --
-19.1631 -19.1475 -14.3934 -10.3058 -10.2894 -10.2611 -10.2238 -10.2177
-10.2175 -10.2170 -10.2134 -10.2080 -10.2049 -10.2023 -10.1905  -1.0768
 -1.0534  -0.9879  -0.8838  -0.8292  -0.8061  -0.7655  -0.7440  -0.7185
 -0.6548  -0.6371  -0.6012  -0.5792  -0.5668  -0.5455  -0.5150  -0.4938
 -0.4839  -0.4765  -0.4730  -0.4568  -0.4457  -0.4429  -0.4263  -0.4101
 -0.3994  -0.3951  -0.3923  -0.3786  -0.3602  -0.3476  -0.3213  -0.3113
 -0.2864  -0.2608  -0.2473  -0.2226

          Ground-State Mulliken Net Atomic Charges

     Atom                 Charge (a.u.)
  ----------------------------------------
      1 C                    -0.356381
      2 C                    -0.109801
      3 C                     0.180594
      4 C                    -0.266275
      5 C                     0.163459
      6 C                    -0.120364
      7 C                    -0.360694
      8 C                     0.260835
      9 C                     0.070412
     10 C                    -0.252505
     11 C                     0.319119
     12 O                    -0.425827
     13 C                     0.577776
     14 O                    -0.452784
     15 N                    -0.754625
     16 H                     0.150396
     17 H                     0.142378
     18 H                     0.134807
     19 H                     0.139347
     20 H                     0.147650
     21 H                     0.153084
     22 H                     0.157988
     23 H                     0.161606
     24 H                     0.339805
  ----------------------------------------
  Sum of atomic charges =     0.000000

                    Cartesian Multipole Moments
 -----------------------------------------------------------------
    Charge (ESU x 10^10)
                 0.0000
    Dipole Moment (Debye)
         X       4.3307      Y      -3.9511      Z      -0.2424
       Tot       5.8673
    Quadrupole Moments (Debye-Ang)
        XX     -95.4456     XY      10.1270     YY     -81.2179
        XZ      -1.1595     YZ       0.7140     ZZ     -86.3195

 Total job time:  41.08s(wall), 40.95s(cpu)
        *  Thank you very much for using Q-Chem.  Have a nice day.  *
