 Q-Chem 5.2, Q-Chem, Inc., Pleasanton, CA (2019)
 Q-Chem 5.2.1 for Intel X86 EM64T Linux

User input:
--------------------------------------------------------------
$molecule
0 1
C         1.58831914160000    2.05242904960000   -0.31978818350000
C         1.64344577500000    0.89465135780000    0.32332495700000
C         0.69761173870000   -0.19827165800000    0.17595590310000
C         1.04101232300000   -1.51974931900000    0.27349729500000
O         0.00013790080000   -2.32143240200000    0.00000885920000
C        -1.04088568020000   -1.51991865810000   -0.27336015650000
C        -0.69773677570000   -0.19837281820000   -0.17566590910000
C        -1.64381738280000    0.89431941060000   -0.32287563930000
C        -1.58813274380000    2.05277155970000    0.31898878860000
H         2.34738296280000    2.80449800000000   -0.18826696220000
H         0.78911195440000    2.28770832030000   -1.00144484160000
H         2.48034638040000    0.67612761520000    0.97568441440000
H         1.97859999060000   -1.98806898860000    0.50118577490000
H        -1.97838449570000   -1.98838824660000   -0.50110934930000
H        -2.48144205540000    0.67505198210000   -0.97404436640000
H        -0.78816038760000    2.28894394830000    0.99943601370000
H        -2.34745540220000    2.80458181080000    0.18750042770000
$end

$rem
BASIS = 6-31G*
GUI = 2
METHOD = B3LYP
PRINT_ORBITALS false
MOLDEN_FORMAT false
--------------------------------------------------------------

             Standard Nuclear Orientation (Angstroms)
    I     Atom           X                Y                Z
 ----------------------------------------------------------------
    1      C       1.9940889770     1.5535022755     0.4598902177
    2      C       0.8362682268     1.6657150531    -0.1756741328
    3      C      -0.2566540707     0.7105164159    -0.1130898221
    4      C      -1.5781349741     1.0612470202    -0.1795560403
    5      O      -2.3798097208     0.0001477347     0.0001580650
    6      C      -1.5782876539    -1.0610954511     0.1796302733
    7      C      -0.2567450754    -0.7106117566     0.1128085946
    8      C       0.8359478534    -1.6660499340     0.1750627453
    9      C       1.9943570287    -1.5534012623    -0.4593665761
   10      H       2.7461564527     2.3212627695     0.3964728840
   11      H       2.2294066245     0.6967375841     1.0676106562
   12      H       0.6177084633     2.5574128162    -0.7508565736
   13      H      -2.0464608847     2.0153943291    -0.3227682799
   14      H      -2.0467509942    -2.0151561794     0.3229749793
   15      H       0.6167163589    -2.5583611593     0.7490246234
   16      H       2.2304911289    -0.6959839622    -1.0658464638
   17      H       2.7461687462    -2.3214222411    -0.3961079028
 ----------------------------------------------------------------

    9    -384.8137427344      3.73e-06  Convergence criterion met
 Total energy in the final basis set =     -384.8137427344

                    Orbital Energies (a.u.)
 --------------------------------------------------------------

 Alpha MOs
 -- Occupied --
-19.2205 -10.2339 -10.2339 -10.1910 -10.1910 -10.1904 -10.1900 -10.1743
-10.1743  -1.1243  -0.8331  -0.7844  -0.7444  -0.7372  -0.6317  -0.5960
 -0.5769  -0.5291  -0.5184  -0.4716  -0.4561  -0.4392  -0.4380  -0.4269
 -0.4053  -0.3666  -0.3574  -0.3542  -0.3199  -0.2884  -0.2235  -0.2157

          Ground-State Mulliken Net Atomic Charges

     Atom                 Charge (a.u.)
  ----------------------------------------
      1 C                    -0.341883
      2 C                    -0.128702
      3 C                     0.057499
      4 C                     0.022325
      5 O                    -0.381612
      6 C                     0.022288
      7 C                     0.057587
      8 C                    -0.128594
      9 C                    -0.341984
     10 H                     0.139357
     11 H                     0.155972
     12 H                     0.129086
     13 H                     0.157157
     14 H                     0.157156
     15 H                     0.129042
     16 H                     0.155965
     17 H                     0.139340
  ----------------------------------------
  Sum of atomic charges =     0.000000

                    Cartesian Multipole Moments
 -----------------------------------------------------------------
    Charge (ESU x 10^10)
                -0.0000
    Dipole Moment (Debye)
         X       0.1586      Y       0.0006      Z       0.0001
       Tot       0.1586
    Quadrupole Moments (Debye-Ang)
        XX     -51.2673     XY       0.0030     YY     -46.2965
        XZ       0.0006     YZ      -2.7699     ZZ     -54.4185

 Total job time:  14.91s(wall), 14.84s(cpu)
        *  Thank you very much for using Q-Chem.  Have a nice day.  *
