 Q-Chem 5.4, Q-Chem, Inc., Pleasanton, CA (2021)
 Q-Chem 5.4.2 for Intel X86 EM64T Linux

User input:
--------------------------------------------------------------
$molecule
0 1
C            0.52832736570000       -2.56433142290000        0.16786464610000
C            1.08973738370000       -1.61070178770000       -0.56122086980000
C            1.10523886700000       -0.19530273620000       -0.21322798690000
C            2.20293781610000        0.58540279240000       -0.43228657150000
S            2.03666600820000        2.17549003580000        0.18934324620000
C            0.45834570600000        1.81560126910000        0.74809538940000
C            0.07179073410000        0.53785026910000        0.45974228210000
C           -1.27226000940000        0.06794392050000        0.76928732080000
C           -2.03065849800000       -0.65840993480000       -0.03412469530000
F           -1.71797843720000       -1.10209888170000       -1.24408139020000
F           -3.26662525220000       -1.04929843270000        0.27172551960000
H            0.57765904180000       -3.59772514870000       -0.12765328920000
H            0.00656240170000       -2.35323555600000        1.08648650220000
H            1.64024947410000       -1.86633258460000       -1.45698412250000
H            3.12257294440000        0.29644853780000       -0.90134109270000
H           -0.12058744020000        2.57723509270000        1.23194286300000
H           -1.71541160160000        0.39207595740000        1.69881384330000
$end

$rem
BASIS = 6-31G*
GUI = 2
METHOD = B3LYP
PRINT_ORBITALS false
MOLDEN_FORMAT false
$end
--------------------------------------------------------------

             Standard Nuclear Orientation (Angstroms)
    I     Atom           X                Y                Z
 ----------------------------------------------------------------
    1      C       1.0936968128    -2.1997875473    -0.8507170702
    2      C       0.1149725009    -1.9883242817     0.0173488188
    3      C      -0.7407750857    -0.8085052131     0.0377657457
    4      C      -2.0762925649    -0.8954012199     0.3047356230
    5      S      -2.8994265156     0.5993462056     0.1297269971
    6      C      -1.4360679418     1.3804389190    -0.2960601746
    7      C      -0.3629012552     0.5357406129    -0.2918277663
    8      C       0.9863975499     1.0285490245    -0.5360307816
    9      C       2.0621673936     0.6786595748     0.1484585714
   10      F       2.1236643158    -0.1792588527     1.1578237214
   11      F       3.2778913430     1.1695418602    -0.0860661610
   12      H       1.6712515328    -3.1074239793    -0.8335791182
   13      H       1.3508876597    -1.4827161282    -1.6125094995
   14      H      -0.1405273991    -2.7498398951     0.7423427792
   15      H      -2.6309269280    -1.7751106235     0.5649808208
   16      H      -1.4343830836     2.4339209014    -0.4948840178
   17      H       1.1133370824     1.7908641537    -1.2898387584
 ----------------------------------------------------------------

    9    -906.2615302749      6.72e-06  Convergence criterion met
 Total energy in the final basis set =     -906.2615302749

                    Orbital Energies (a.u.)
 --------------------------------------------------------------

 Alpha MOs
 -- Occupied --
-88.9119 -24.7352 -24.7318 -10.3532 -10.2132 -10.2120 -10.2071 -10.2018
-10.1998 -10.1924 -10.1781  -7.9737  -5.9375  -5.9339  -5.9310  -1.2797
 -1.2197  -0.8949  -0.8086  -0.7908  -0.7257  -0.7181  -0.6342  -0.5992
 -0.5816  -0.5691  -0.5484  -0.5161  -0.5046  -0.4879  -0.4533  -0.4361
 -0.4350  -0.4208  -0.4162  -0.4025  -0.3904  -0.3847  -0.3679  -0.3458
 -0.2938  -0.2854  -0.2252  -0.2214

          Ground-State Mulliken Net Atomic Charges

     Atom                 Charge (a.u.)
  ----------------------------------------
      1 C                    -0.340566
      2 C                    -0.117014
      3 C                     0.142527
      4 C                    -0.407264
      5 S                     0.271198
      6 C                    -0.399812
      7 C                     0.151686
      8 C                    -0.338601
      9 C                     0.576273
     10 F                    -0.231409
     11 F                    -0.248318
     12 H                     0.143325
     13 H                     0.149269
     14 H                     0.134818
     15 H                     0.173969
     16 H                     0.173466
     17 H                     0.166449
  ----------------------------------------
  Sum of atomic charges =     0.000000

                    Cartesian Multipole Moments
 -----------------------------------------------------------------
    Charge (ESU x 10^10)
                -0.0000
    Dipole Moment (Debye)
         X      -0.6038      Y       0.0526      Z      -0.4577
       Tot       0.7595
    Quadrupole Moments (Debye-Ang)
        XX     -70.3337     XY       0.0752     YY     -62.0117
        XZ      -2.4424     YZ      -2.8259     ZZ     -69.4118

 Total job time:  32.12s(wall), 31.49s(cpu)
        *  Thank you very much for using Q-Chem.  Have a nice day.  *
