 Q-Chem 5.2, Q-Chem, Inc., Pleasanton, CA (2019)
 Q-Chem 5.2.1 for Intel X86 EM64T Linux

User input:
--------------------------------------------------------------
$molecule
0 1
C        -3.80894706820000   -0.60866915210000   -0.00072107430000
C        -2.90611718530000    0.36416966590000    0.00053381420000
C        -1.45995299580000    0.19589665940000    0.00025816120000
C        -0.80234429410000   -1.04237441900000   -0.00051064400000
C         0.57706291420000   -1.06463327980000   -0.00073311520000
C         1.32814639510000   -2.35767563140000   -0.00267991970000
C         1.22365257190000    0.19396257650000    0.00076638580000
C         2.67542939630000    0.32596689140000    0.00254501640000
C         3.29260189950000    1.50197515370000   -0.00078716120000
N         0.52369156260000    1.32597182890000    0.00118707280000
N        -0.76372016320000    1.33332763670000    0.00063413480000
H        -4.86322384290000   -0.39179202890000   -0.00062258620000
H        -3.54479407940000   -1.65310279050000   -0.00229756830000
H        -3.21326591090000    1.40091579860000    0.00173854820000
H        -1.36289199240000   -1.96572692290000   -0.00120706130000
H         0.63631630670000   -3.19718315130000   -0.00653075900000
H         1.96086146910000   -2.43331568190000    0.88092738380000
H         1.96481610780000   -2.42836012780000   -0.88382461920000
H         3.24372665440000   -0.59300605490000    0.00671358760000
H         2.72333791580000    2.41514411700000   -0.00478161600000
H         4.36633291660000    1.57980693770000    0.00040750650000
$end

$rem
BASIS = 6-31G*
GUI = 2
METHOD = B3LYP
PRINT_ORBITALS false
MOLDEN_FORMAT false
--------------------------------------------------------------

             Standard Nuclear Orientation (Angstroms)
    I     Atom           X                Y                Z
 ----------------------------------------------------------------
    1      C       3.8597031181    -0.1412468198     0.0002804202
    2      C       2.8558936737     0.7270186681    -0.0003360106
    3      C       1.4368074361     0.4015943834    -0.0001653393
    4      C       0.9185675245    -0.9011690071    -0.0002030415
    5      C      -0.4501310805    -1.0741540814     0.0000095863
    6      C      -1.0552948966    -2.4415838761     0.0011144287
    7      C      -1.2304893100     0.1061783045    -0.0006656940
    8      C      -2.6879946481     0.0786175985    -0.0023531683
    9      C      -3.4300795840     1.1800718888     0.0017491889
   10      N      -0.6585297333     1.3079489488    -0.0003494200
   11      N       0.6203551527     1.4560587305     0.0002039408
   12      H       4.8839370378     0.1896309372     0.0003199919
   13      H       3.7113597472    -1.2083055598     0.0011756675
   14      H       3.0478156514     1.7911380268    -0.0008646653
   15      H       1.5767357924    -1.7576785380    -0.0001115963
   16      H      -0.2758012353    -3.2003956558     0.0044146097
   17      H      -1.6760083857    -2.5853940916    -0.8825399354
   18      H      -1.6803492447    -2.5820457974     0.8822149412
   19      H      -3.1523794103    -0.8969922089    -0.0071200084
   20      H      -2.9640991525     2.1500183685     0.0063381186
   21      H      -4.5058821350     1.1400084106     0.0006090094
 ----------------------------------------------------------------

    9    -458.4076235457      1.57e-06  Convergence criterion met
 Total energy in the final basis set =     -458.4076235457

                    Orbital Energies (a.u.)
 --------------------------------------------------------------

 Alpha MOs
 -- Occupied --
-14.3524 -14.3520 -10.2288 -10.2281 -10.2208 -10.2092 -10.2001 -10.1938
-10.1927 -10.1898 -10.1843  -1.0248  -0.8529  -0.8409  -0.7842  -0.7492
 -0.7278  -0.6709  -0.6309  -0.5873  -0.5690  -0.5292  -0.4995  -0.4706
 -0.4533  -0.4518  -0.4309  -0.4196  -0.4169  -0.4118  -0.4018  -0.3668
 -0.3635  -0.3390  -0.3102  -0.2997  -0.2755  -0.2284  -0.2141

          Ground-State Mulliken Net Atomic Charges

     Atom                 Charge (a.u.)
  ----------------------------------------
      1 C                    -0.350270
      2 C                    -0.084289
      3 C                     0.313123
      4 C                    -0.210832
      5 C                     0.157455
      6 C                    -0.538916
      7 C                     0.277978
      8 C                    -0.118705
      9 C                    -0.319938
     10 N                    -0.344200
     11 N                    -0.337833
     12 H                     0.153275
     13 H                     0.141980
     14 H                     0.152383
     15 H                     0.136134
     16 H                     0.163834
     17 H                     0.176692
     18 H                     0.176709
     19 H                     0.128093
     20 H                     0.183787
     21 H                     0.143540
  ----------------------------------------
  Sum of atomic charges =     0.000000

                    Cartesian Multipole Moments
 -----------------------------------------------------------------
    Charge (ESU x 10^10)
                 0.0000
    Dipole Moment (Debye)
         X      -0.0931      Y      -3.8011      Z       0.0005
       Tot       3.8022
    Quadrupole Moments (Debye-Ang)
        XX     -54.7291     XY       0.1849     YY     -64.4756
        XZ       0.0017     YZ       0.0093     ZZ     -66.8856

 Total job time:  24.37s(wall), 23.08s(cpu)
        *  Thank you very much for using Q-Chem.  Have a nice day.  *
