 Q-Chem 5.2, Q-Chem, Inc., Pleasanton, CA (2019)
 Q-Chem 5.2.1 for Intel X86 EM64T Linux

User input:
--------------------------------------------------------------
$molecule
0 1
C        -1.50280913970000   -3.47871232080000    0.52878342660000
C        -2.14959216110000   -2.32531740460000    0.68004755740000
C        -1.67312210480000   -1.04287972940000    0.23647092210000
C        -0.53867675260000   -0.71530702080000   -0.46042079290000
C        -0.37702760990000    0.66143363440000   -0.70815112370000
C         0.82250669660000    1.18292410820000   -1.43481039720000
C         1.93699328340000    1.60443360970000   -0.46441666630000
C         2.48391657580000    0.44980111160000    0.37564131660000
C         3.32519543610000   -0.53876473000000   -0.42962727690000
C         3.84113019120000   -1.70395598730000    0.41663036710000
C         2.75249907970000   -2.71247642030000    0.76659841700000
C        -1.41522535610000    1.41327567180000   -0.19532934340000
C        -1.72207936650000    2.81999280580000   -0.21072377930000
C        -0.94149682290000    3.84112735200000   -0.55780060730000
S        -2.59034064520000    0.38699558430000    0.58602660220000
H        -1.91900236290000   -4.40368600510000    0.88648373480000
H        -0.54199479360000   -3.53923927140000    0.04816516400000
H        -3.11113202260000   -2.30866456980000    1.17689593790000
H         0.16776637890000   -1.45118157120000   -0.80023585480000
H         0.53917584610000    2.03462011210000   -2.05533117540000
H         1.19749740940000    0.40180666180000   -2.09804385400000
H         1.54212012980000    2.36517624290000    0.21256557830000
H         2.75233682900000    2.05295687380000   -1.03752129720000
H         1.64887103460000   -0.06778500100000    0.84938042580000
H         3.10712910610000    0.86481157530000    1.17194991840000
H         4.17758156770000   -0.00375443280000   -0.85655444280000
H         2.74194681130000   -0.94115624000000   -1.25983214790000
H         4.28469106060000   -1.31350466520000    1.33528122430000
H         4.62966253700000   -2.21987774320000   -0.13681117750000
H         1.95457953070000   -2.24834960520000    1.34092043000000
H         3.16606306900000   -3.52597245770000    1.35849186350000
H         2.32488995160000   -3.13693895940000   -0.14005126590000
H        -2.72989556820000    3.03819007280000    0.12425078470000
H         0.07914190830000    3.73204664200000   -0.87247731830000
H        -1.31997752140000    4.84851016120000   -0.52413027530000
$end

$rem
BASIS = 6-31G*
GUI = 2
METHOD = B3LYP
PRINT_ORBITALS false
MOLDEN_FORMAT false
--------------------------------------------------------------

             Standard Nuclear Orientation (Angstroms)
    I     Atom           X                Y                Z
 ----------------------------------------------------------------
    1      C       0.4632702722    -3.8036377487    -0.3377942441
    2      C      -0.6837058389    -3.2201921163     0.0021556659
    3      C      -0.9682093739    -1.8157879962    -0.1208774306
    4      C      -0.2045163664    -0.8024747179    -0.6403939263
    5      C      -0.7976822437     0.4731187412    -0.5776949397
    6      C      -0.0812858491     1.6869176480    -1.0800264898
    7      C       0.6898923093     2.3980361066     0.0429202546
    8      C       1.7962625501     1.5421313703     0.6604724230
    9      C       2.9937595639     1.3405802736    -0.2662681604
   10      C       4.0795443658     0.4585098815     0.3526296706
   11      C       3.6955781418    -1.0164760062     0.3938045007
   12      C      -2.0519468829     0.4418510662    -0.0015441478
   13      C      -3.0493569672     1.4477193896     0.2566253841
   14      C      -2.9340929979     2.7727037227     0.1964761718
   15      S      -2.4812085413    -1.1882378026     0.4492424786
   16      H       0.6083927839    -4.8625699879    -0.2180253180
   17      H       1.2916221754    -3.2487796321    -0.7425005927
   18      H      -1.4890190630    -3.8152521930     0.4133352515
   19      H       0.7666208925    -0.9684269035    -1.0709747256
   20      H      -0.7951833523     2.3807457571    -1.5268613587
   21      H       0.6170742422     1.3833475386    -1.8615503151
   22      H      -0.0141332568     2.6714226619     0.8319493507
   23      H       1.1241652866     3.3182887213    -0.3557641321
   24      H       1.3769419511     0.5766461924     0.9461886983
   25      H       2.1449449395     2.0316425562     1.5734534317
   26      H       3.4207976279     2.3190759466    -0.5013206017
   27      H       2.6710034624     0.8897278802    -1.2064269937
   28      H       4.2935344522     0.8074533566     1.3653312906
   29      H       4.9961290921     0.5640964258    -0.2330152587
   30      H       2.7990053280    -1.1743281957     0.9880897499
   31      H       4.4991033325    -1.6048684436     0.8311721215
   32      H       3.5134801381    -1.3878899537    -0.6131332619
   33      H      -4.0065880622     1.0309504509     0.5490698828
   34      H      -2.0221029153     3.2817305232    -0.0520982819
   35      H      -3.7815164924     3.4007944536     0.4122930142
 ----------------------------------------------------------------

    9    -943.6802993061      3.50e-06  Convergence criterion met
 Total energy in the final basis set =     -943.6802993061

                    Orbital Energies (a.u.)
 --------------------------------------------------------------

 Alpha MOs
 -- Occupied --
-88.9014 -10.2164 -10.2143 -10.1980 -10.1975 -10.1928 -10.1849 -10.1842
-10.1818 -10.1793 -10.1786 -10.1753 -10.1737 -10.1713 -10.1688  -7.9634
 -5.9273  -5.9237  -5.9204  -0.8895  -0.8157  -0.8032  -0.7811  -0.7684
 -0.7382  -0.7078  -0.6906  -0.6514  -0.6132  -0.6016  -0.5913  -0.5633
 -0.5359  -0.5089  -0.4870  -0.4717  -0.4668  -0.4531  -0.4443  -0.4389
 -0.4316  -0.4185  -0.4018  -0.3968  -0.3892  -0.3788  -0.3697  -0.3633
 -0.3624  -0.3496  -0.3407  -0.3390  -0.3296  -0.3218  -0.3158  -0.3138
 -0.3057  -0.2693  -0.2450  -0.1965

          Ground-State Mulliken Net Atomic Charges

     Atom                 Charge (a.u.)
  ----------------------------------------
      1 C                    -0.345228
      2 C                    -0.088830
      3 C                    -0.130945
      4 C                    -0.167067
      5 C                     0.181124
      6 C                    -0.361048
      7 C                    -0.258779
      8 C                    -0.267885
      9 C                    -0.253674
     10 C                    -0.249752
     11 C                    -0.452208
     12 C                    -0.196457
     13 C                    -0.089836
     14 C                    -0.355829
     15 S                     0.225707
     16 H                     0.146507
     17 H                     0.146353
     18 H                     0.136878
     19 H                     0.140462
     20 H                     0.150286
     21 H                     0.146859
     22 H                     0.145073
     23 H                     0.129356
     24 H                     0.152648
     25 H                     0.130005
     26 H                     0.128017
     27 H                     0.126115
     28 H                     0.132034
     29 H                     0.129554
     30 H                     0.157341
     31 H                     0.144014
     32 H                     0.137819
     33 H                     0.135499
     34 H                     0.152215
     35 H                     0.143668
  ----------------------------------------
  Sum of atomic charges =     0.000000

                    Cartesian Multipole Moments
 -----------------------------------------------------------------
    Charge (ESU x 10^10)
                 0.0000
    Dipole Moment (Debye)
         X       0.8093      Y       0.3663      Z      -0.2056
       Tot       0.9118
    Quadrupole Moments (Debye-Ang)
        XX     -97.5198     XY      -1.3712     YY     -94.3363
        XZ      -2.4401     YZ      -0.6090     ZZ    -102.5666

 Total job time:  63.11s(wall), 62.79s(cpu)
        *  Thank you very much for using Q-Chem.  Have a nice day.  *
