 Q-Chem 5.2, Q-Chem, Inc., Pleasanton, CA (2019)
 Q-Chem 5.2.1 for Intel X86 EM64T Linux

User input:
--------------------------------------------------------------
$molecule
0 1
C        -4.23894888180000   -0.28771809380000   -0.07928668470000
C        -3.18970199330000    0.51608252860000    0.05594843640000
C        -1.78633663810000    0.13630663880000    0.02179936340000
C        -1.34699488070000   -1.17858917470000   -0.14281528970000
C        -0.00503945920000   -1.48469094850000   -0.14334821280000
C         0.97323343840000   -0.49432474180000   -0.00671354270000
N         2.31244618550000   -0.80343554350000   -0.00627537890000
C         2.79097093630000   -2.15103732060000    0.17731491570000
C         0.54945102900000    0.84686819440000    0.12420205580000
C         1.47092492820000    1.97745905180000    0.23700465030000
C         2.61544890810000    2.13742033100000   -0.41757736860000
C        -0.81101542840000    1.12087495660000    0.16258725650000
H        -5.24504951920000    0.09341383170000   -0.03916090450000
H        -4.14475279310000   -1.34858314890000   -0.23533971960000
H        -3.36250332270000    1.57545201190000    0.20775847210000
H        -2.06346467760000   -1.97721989280000   -0.25698221020000
H         0.29359183830000   -2.51523267760000   -0.25320109280000
H         2.89392398910000   -0.08480634280000    0.40058094490000
H         2.49038753580000   -2.77117893190000   -0.66873826070000
H         2.41788079440000   -2.61407025080000    1.09979904810000
H         3.87836578000000   -2.13081729000000    0.21279919480000
H         1.12775628400000    2.77173414530000    0.89088954940000
H         2.97401839080000    1.42288673210000   -1.13924200540000
H         3.21365672150000    3.02429404100000   -0.28842348970000
H        -1.12118218820000    2.15025675430000    0.28617695680000
$end

$rem
BASIS = 6-31G*
GUI = 2
METHOD = B3LYP
PRINT_ORBITALS false
MOLDEN_FORMAT false
--------------------------------------------------------------

             Standard Nuclear Orientation (Angstroms)
    I     Atom           X                Y                Z
 ----------------------------------------------------------------
    1      C       4.2564859917    -0.3024651916     0.0785057569
    2      C       3.2125944153     0.5086697489    -0.0543607045
    3      C       1.8067324607     0.1381949175    -0.0207337833
    4      C       1.3586616340    -1.1741491881     0.1406838330
    5      C       0.0146906299    -1.4712768399     0.1408622511
    6      C      -0.9569820856    -0.4740518153     0.0070470697
    7      N      -2.2982308757    -0.7742042814     0.0062459112
    8      C      -2.7858059388    -2.1181079122    -0.1806109108
    9      C      -0.5242844870     0.8646071871    -0.1206000221
   10      C      -1.4382152250     2.0016132319    -0.2302454470
   11      C      -2.5814498886     2.1675573757     0.4250998178
   12      C       0.8379713830     1.1296130177    -0.1587178054
   13      H       5.2650994040     0.0720355423     0.0390304460
   14      H       4.1552483291    -1.3630697447     0.2318975281
   15      H       3.3924268259     1.5672427178    -0.2035379886
   16      H       2.0698118532    -1.9778370922     0.2525998644
   17      H      -0.2907887440    -2.5000754396     0.2481951718
   18      H      -2.8750138258    -0.0506750783    -0.3986038798
   19      H      -2.4891222920    -2.7423896610     0.6637723482
   20      H      -2.4160930287    -2.5812808871    -1.1043835464
   21      H      -3.8730518635    -2.0905317915    -0.2157020309
   22      H      -1.0899403063     2.7952343906    -0.8822217820
   23      H      -2.9445722108     1.4536065625     1.1450627344
   24      H      -3.1737554723     3.0587337658     0.2983834922
   25      H       1.1549741244     2.1572094944    -0.2797940686
 ----------------------------------------------------------------

    8    -481.7054404329      8.79e-06  Convergence criterion met
 Total energy in the final basis set =     -481.7054404329

                    Orbital Energies (a.u.)
 --------------------------------------------------------------

 Alpha MOs
 -- Occupied --
-14.3431 -10.2235 -10.2168 -10.1918 -10.1842 -10.1798 -10.1790 -10.1782
-10.1779 -10.1763 -10.1758 -10.1650  -0.9393  -0.8495  -0.7965  -0.7696
 -0.7294  -0.7222  -0.6804  -0.6263  -0.5917  -0.5841  -0.5469  -0.5156
 -0.4904  -0.4736  -0.4645  -0.4445  -0.4340  -0.4300  -0.4226  -0.4038
 -0.3913  -0.3789  -0.3726  -0.3641  -0.3392  -0.3266  -0.3152  -0.2894
 -0.2537  -0.2302  -0.1812

          Ground-State Mulliken Net Atomic Charges

     Atom                 Charge (a.u.)
  ----------------------------------------
      1 C                    -0.364469
      2 C                    -0.111663
      3 C                     0.187256
      4 C                    -0.195099
      5 C                    -0.183068
      6 C                     0.304292
      7 N                    -0.651924
      8 C                    -0.303532
      9 C                     0.122535
     10 C                    -0.141876
     11 C                    -0.365045
     12 C                    -0.287653
     13 H                     0.136419
     14 H                     0.134573
     15 H                     0.119563
     16 H                     0.124135
     17 H                     0.123075
     18 H                     0.319782
     19 H                     0.165737
     20 H                     0.149427
     21 H                     0.156830
     22 H                     0.135709
     23 H                     0.161494
     24 H                     0.141148
     25 H                     0.122355
  ----------------------------------------
  Sum of atomic charges =     0.000000

                    Cartesian Multipole Moments
 -----------------------------------------------------------------
    Charge (ESU x 10^10)
                 0.0000
    Dipole Moment (Debye)
         X      -2.0656      Y      -0.5363      Z      -0.6635
       Tot       2.2348
    Quadrupole Moments (Debye-Ang)
        XX     -65.0522     XY       1.7220     YY     -64.5190
        XZ       1.2701     YZ      -1.7116     ZZ     -75.5787

 Total job time:  27.15s(wall), 27.06s(cpu)
        *  Thank you very much for using Q-Chem.  Have a nice day.  *
