 Q-Chem 5.2, Q-Chem, Inc., Pleasanton, CA (2019)
 Q-Chem 5.2.1 for Intel X86 EM64T Linux

User input:
--------------------------------------------------------------
$molecule
0 1
C        -3.91305235040000    0.32659639910000   -0.02323702970000
C        -2.98660809660000   -0.62492669610000    0.00004520810000
C        -1.54356210640000   -0.43379093200000    0.00385949270000
C        -0.70553324890000   -1.55255712010000    0.01310779840000
C         0.66620996750000   -1.42621311660000    0.01663020700000
C         1.28460252190000   -0.17369451360000    0.01162508550000
C         2.72639114670000    0.02458106060000    0.01634165350000
C         3.65139228440000   -0.92678789330000   -0.04020541080000
C         0.42805955290000    0.93182196730000    0.00518761190000
F         0.96083159870000    2.17628963370000    0.00165302620000
C        -0.94421042600000    0.82584480920000    0.00029781930000
H        -4.96177769110000    0.08439045790000   -0.02429268710000
H        -3.67323888350000    1.37558183910000   -0.04262315910000
H        -3.30030182570000   -1.66154142630000    0.01701756370000
H        -1.14652399080000   -2.53905820480000    0.01802918510000
H         1.27736575100000   -2.31473828450000    0.02699436030000
H         3.03873087270000    1.05959410840000    0.06654927540000
H         3.41163422570000   -1.97457986960000   -0.09927767070000
H         4.69956719210000   -0.68320166130000   -0.03215313260000
H        -1.53201638770000    1.72926673850000   -0.00492799170000
$end

$rem
BASIS = 6-31G*
GUI = 2
METHOD = B3LYP
PRINT_ORBITALS false
MOLDEN_FORMAT false
--------------------------------------------------------------

             Standard Nuclear Orientation (Angstroms)
    I     Atom           X                Y                Z
 ----------------------------------------------------------------
    1      C       3.8995320553    -0.2964854107    -0.0230832165
    2      C       2.9549144273     0.6369895944     0.0005635706
    3      C       1.5158223730     0.4180636699     0.0043921024
    4      C       0.6563781251     1.5204600975     0.0140555422
    5      C      -0.7126737260     1.3676888230     0.0176098055
    6      C      -1.3068008920     0.1034811059     0.0122235002
    7      C      -2.7444980926    -0.1225593542     0.0169518857
    8      C      -3.6876746955     0.8108156875    -0.0392307533
    9      C      -0.4291012830    -0.9853120209     0.0053742818
   10      F      -0.9377790058    -2.2398198705     0.0014565785
   11      C       0.9408698585    -0.8528931965     0.0004458681
   12      H       4.9433922133    -0.0341029068    -0.0241150522
   13      H       3.6799882598    -1.3498934066    -0.0428035188
   14      H       3.2485631335     1.6794545174     0.0178620394
   15      H       1.0782657320     2.5152791769     0.0192796279
   16      H      -1.3408475665     2.2442611882     0.0283007371
   17      H      -3.0368198955    -1.1634189376     0.0668338478
   18      H      -3.4681679983     1.8630552447    -0.0979692278
   19      H      -4.7309574882     0.5470614557    -0.0312027834
   20      H       1.5459857621    -1.7448114725    -0.0051103963
 ----------------------------------------------------------------

    9    -486.2806411734      2.05e-06  Convergence criterion met
 Total energy in the final basis set =     -486.2806411734

                    Orbital Energies (a.u.)
 --------------------------------------------------------------

 Alpha MOs
 -- Occupied --
-24.7062 -10.2710 -10.2047 -10.2030 -10.1960 -10.1956 -10.1931 -10.1929
-10.1914 -10.1855 -10.1828  -1.2169  -0.8749  -0.8146  -0.7727  -0.7538
 -0.7227  -0.6517  -0.6146  -0.5836  -0.5683  -0.5263  -0.5054  -0.4884
 -0.4616  -0.4605  -0.4466  -0.4423  -0.4190  -0.4015  -0.3911  -0.3768
 -0.3632  -0.3523  -0.3437  -0.3264  -0.2730  -0.2514  -0.2150

          Ground-State Mulliken Net Atomic Charges

     Atom                 Charge (a.u.)
  ----------------------------------------
      1 C                    -0.347917
      2 C                    -0.117734
      3 C                     0.186729
      4 C                    -0.197278
      5 C                    -0.186982
      6 C                     0.101335
      7 C                    -0.109058
      8 C                    -0.349623
      9 C                     0.312855
     10 F                    -0.295229
     11 C                    -0.263949
     12 H                     0.147947
     13 H                     0.146344
     14 H                     0.130714
     15 H                     0.130483
     16 H                     0.134928
     17 H                     0.145182
     18 H                     0.142099
     19 H                     0.148023
     20 H                     0.141131
  ----------------------------------------
  Sum of atomic charges =     0.000000

                    Cartesian Multipole Moments
 -----------------------------------------------------------------
    Charge (ESU x 10^10)
                 0.0000
    Dipole Moment (Debye)
         X       0.5504      Y       1.1591      Z       0.0059
       Tot       1.2831
    Quadrupole Moments (Debye-Ang)
        XX     -56.1312     XY      -1.6717     YY     -59.6364
        XZ      -0.0284     YZ      -0.0537     ZZ     -67.4055

 Total job time:  21.45s(wall), 21.34s(cpu)
        *  Thank you very much for using Q-Chem.  Have a nice day.  *
