 Q-Chem 5.2, Q-Chem, Inc., Pleasanton, CA (2019)
 Q-Chem 5.2.1 for Intel X86 EM64T Linux

User input:
--------------------------------------------------------------
$molecule
0 1
C        -3.85122151420000    0.43438514820000    0.25480782970000
C        -2.97942243130000   -0.53881313810000    0.01817730600000
C        -1.53229743960000   -0.40471431490000   -0.04201145520000
C        -0.73293867890000   -1.54428021850000   -0.17687532090000
N         0.57768860940000   -1.51658081060000   -0.22520048010000
C         1.22474385950000   -0.35301433860000   -0.12803079140000
C         2.67935538890000   -0.50059150450000   -0.16172636810000
C         3.57572236550000    0.23362952030000    0.48348180060000
C         0.53080696660000    0.86616280320000   -0.04051475880000
C         1.20945888720000    2.20126174760000   -0.03822199060000
C        -0.85442630770000    0.81284068420000    0.00154384380000
H        -4.90987416880000    0.24243308100000    0.28651075230000
H        -3.55247830970000    1.45376719530000    0.43089652210000
H        -3.34161953230000   -1.54780942350000   -0.13868723080000
H        -1.18149338500000   -2.52774012690000   -0.25236381750000
H         3.00136618770000   -1.36234117940000   -0.73187463790000
H         3.30933073490000    1.05473058460000    1.12506892570000
H         4.62735603730000    0.01002991950000    0.41611317340000
H         2.12621327170000    2.17297895570000   -0.62233337150000
H         1.45896843200000    2.50162405000000    0.97948622980000
H         0.54607886790000    2.95773846040000   -0.45392743620000
H        -1.41002314370000    1.73832818200000    0.05732826370000
$end

$rem
BASIS = 6-31G*
GUI = 2
METHOD = B3LYP
PRINT_ORBITALS false
MOLDEN_FORMAT false
--------------------------------------------------------------

             Standard Nuclear Orientation (Angstroms)
    I     Atom           X                Y                Z
 ----------------------------------------------------------------
    1      C       3.8152931198    -0.6924869723     0.2099941351
    2      C       3.0180834539     0.3585235128     0.0584149183
    3      C       1.5653788661     0.3362476737    -0.0117925629
    4      C       0.8519985691     1.5385648138    -0.0477812522
    5      N      -0.4568782042     1.6110159250    -0.0971664302
    6      C      -1.1875855400     0.4938451444    -0.0995362524
    7      C      -2.6273571416     0.7497364278    -0.1191958384
    8      C      -3.5783594626     0.0305264980     0.4614757670
    9      C      -0.5848949055    -0.7758175355    -0.1174540902
   10      C      -1.3591112480    -2.0530031700    -0.2290282236
   11      C       0.8002906420    -0.8277281839    -0.0721806729
   12      H       4.8849388231    -0.5818811881     0.2571167882
   13      H       3.4420539023    -1.6986118135     0.2983104881
   14      H       3.4537452850     1.3480437629    -0.0116933582
   15      H       1.3714844144     2.4894338483    -0.0390769623
   16      H      -2.8825753732     1.6783372174    -0.6130953568
   17      H      -3.3760332101    -0.8597287618     1.0300838549
   18      H      -4.6105058239     0.3353702175     0.4144344160
   19      H      -2.2681900821    -1.9078882221    -0.8077699176
   20      H      -1.6353607423    -2.4202820465     0.7594023462
   21      H      -0.7504299702    -2.8176174772    -0.7086250832
   22      H       1.2866020873    -1.7927362644    -0.0964177703
 ----------------------------------------------------------------

    9    -442.3978825304      2.69e-06  Convergence criterion met
 Total energy in the final basis set =     -442.3978825304

                    Orbital Energies (a.u.)
 --------------------------------------------------------------

 Alpha MOs
 -- Occupied --
-14.3196 -10.2219 -10.2134 -10.2027 -10.1994 -10.1982 -10.1957 -10.1872
-10.1853 -10.1847 -10.1826  -0.9462  -0.8265  -0.8122  -0.7743  -0.7325
 -0.7033  -0.6489  -0.6124  -0.5779  -0.5595  -0.5120  -0.4958  -0.4726
 -0.4431  -0.4327  -0.4264  -0.4196  -0.4009  -0.3966  -0.3948  -0.3857
 -0.3577  -0.3409  -0.3240  -0.2778  -0.2654  -0.2468  -0.2202

          Ground-State Mulliken Net Atomic Charges

     Atom                 Charge (a.u.)
  ----------------------------------------
      1 C                    -0.350472
      2 C                    -0.116382
      3 C                     0.156778
      4 C                    -0.020937
      5 N                    -0.477651
      6 C                     0.220427
      7 C                    -0.093598
      8 C                    -0.342244
      9 C                     0.142414
     10 C                    -0.540589
     11 C                    -0.206960
     12 H                     0.147865
     13 H                     0.143110
     14 H                     0.132942
     15 H                     0.135925
     16 H                     0.148679
     17 H                     0.147118
     18 H                     0.147007
     19 H                     0.173535
     20 H                     0.167064
     21 H                     0.156071
     22 H                     0.129897
  ----------------------------------------
  Sum of atomic charges =     0.000000

                    Cartesian Multipole Moments
 -----------------------------------------------------------------
    Charge (ESU x 10^10)
                 0.0000
    Dipole Moment (Debye)
         X       0.4987      Y      -1.9193      Z       0.0449
       Tot       1.9836
    Quadrupole Moments (Debye-Ang)
        XX     -57.6163     XY       2.2660     YY     -63.6657
        XZ      -0.0596     YZ      -1.0384     ZZ     -67.6330

 Total job time:  27.08s(wall), 26.97s(cpu)
        *  Thank you very much for using Q-Chem.  Have a nice day.  *
