 Q-Chem 5.2, Q-Chem, Inc., Pleasanton, CA (2019)
 Q-Chem 5.2.1 for Intel X86 EM64T Linux

User input:
--------------------------------------------------------------
$molecule
0 1
C        -4.20643611730000   -0.14846099000000    0.00383151060000
C        -2.99110252070000    0.39591024220000   -0.00142250730000
C        -1.77608748600000   -0.37359537760000   -0.00213905730000
C        -0.54941474000000    0.17378060010000   -0.00276428230000
C         0.65924340240000   -0.60341845880000   -0.00189629980000
C         1.87622869290000   -0.07085446130000    0.00008535650000
F         2.15570412570000    1.22846399270000    0.00124979710000
F         3.00735099130000   -0.76992525280000    0.00144334050000
H        -5.09985493460000    0.45107416340000    0.00496503230000
H        -4.34495874420000   -1.21722033890000    0.00755543070000
H        -2.87735689020000    1.47212903890000   -0.00479260190000
H        -1.88297178960000   -1.45069996420000   -0.00146126450000
H        -0.43443221880000    1.24915234320000   -0.00327483240000
H         0.58848036780000   -1.68009555360000   -0.00245063100000
$end

$rem
BASIS = 6-31G*
GUI = 2
METHOD = B3LYP
PRINT_ORBITALS false
MOLDEN_FORMAT false
--------------------------------------------------------------

             Standard Nuclear Orientation (Angstroms)
    I     Atom           X                Y                Z
 ----------------------------------------------------------------
    1      C       4.0478296835    -0.1386283099    -0.0035672707
    2      C       2.8329863088     0.4068377202     0.0015100378
    3      C       1.6172789907    -0.3615736639     0.0022900938
    4      C       0.3910994694     0.1869064716     0.0027373400
    5      C      -0.8182577844    -0.5892043607     0.0019346738
    6      C      -2.0347630233    -0.0555453966    -0.0002216382
    7      F      -2.3130685819     1.2440238854    -0.0016413630
    8      F      -3.1665141001    -0.7535978834    -0.0015236642
    9      H       4.9417879289     0.4601021104    -0.0047536513
   10      H       4.1853903597    -1.2075125896    -0.0070870084
   11      H       2.7202093565     1.4831590751     0.0046761600
   12      H       1.7231936509    -1.4387741393     0.0018159996
   13      H       0.2770850455     1.2623813639     0.0030439940
   14      H      -0.7484640717    -1.6659446021     0.0026903311
 ----------------------------------------------------------------

    9    -431.8668912512      9.75e-06  Convergence criterion met
 Total energy in the final basis set =     -431.8668912512

                    Orbital Energies (a.u.)
 --------------------------------------------------------------

 Alpha MOs
 -- Occupied --
-24.7415 -24.7375 -10.3572 -10.2038 -10.2000 -10.1919 -10.1911 -10.1809
 -1.2847  -1.2254  -0.8326  -0.7922  -0.7295  -0.6458  -0.6014  -0.5776
 -0.5574  -0.5231  -0.5188  -0.4764  -0.4521  -0.4413  -0.4314  -0.4191
 -0.3962  -0.3857  -0.3540  -0.3442  -0.2882  -0.2083

          Ground-State Mulliken Net Atomic Charges

     Atom                 Charge (a.u.)
  ----------------------------------------
      1 C                    -0.360066
      2 C                    -0.053988
      3 C                    -0.121124
      4 C                    -0.117758
      5 C                    -0.233160
      6 C                     0.535667
      7 F                    -0.237269
      8 F                    -0.244411
      9 H                     0.144179
     10 H                     0.140402
     11 H                     0.126619
     12 H                     0.122744
     13 H                     0.138816
     14 H                     0.159351
  ----------------------------------------
  Sum of atomic charges =     0.000000

                    Cartesian Multipole Moments
 -----------------------------------------------------------------
    Charge (ESU x 10^10)
                 0.0000
    Dipole Moment (Debye)
         X       0.7923      Y      -0.3820      Z       0.0007
       Tot       0.8796
    Quadrupole Moments (Debye-Ang)
        XX     -46.1647     XY       0.3163     YY     -41.9882
        XZ      -0.0118     YZ       0.0075     ZZ     -47.4595

 Total job time:  8.49s(wall), 8.44s(cpu)
        *  Thank you very much for using Q-Chem.  Have a nice day.  *
