 Q-Chem 5.2, Q-Chem, Inc., Pleasanton, CA (2019)
 Q-Chem 5.2.1 for Intel X86 EM64T Linux

User input:
--------------------------------------------------------------
$molecule
0 1
C        -3.72705989870000   -2.70786074630000    0.10848580950000
C        -3.60033081850000   -1.39329903010000   -0.02286026130000
C        -2.35279270780000   -0.63682107980000   -0.02757502530000
C        -2.40649720230000    0.75621110740000   -0.05289009240000
C        -1.25644118360000    1.53835999220000   -0.04915948080000
C        -1.38697942590000    2.99150684090000   -0.06321661780000
C        -0.41811784400000    3.87404146730000    0.14676423500000
C        -0.00949168740000    0.90632121810000   -0.03704716830000
C         0.04352295600000   -0.47223071950000   -0.01908646300000
O         1.24684492860000   -1.21193052950000   -0.01082024870000
C         2.40884511410000   -0.60177832490000   -0.00067011870000
F         2.61252692720000    0.19811298390000    1.06385255330000
F         3.37558140540000   -1.51499492370000    0.02339316510000
F         2.64389842450000    0.17415207560000   -1.07633146070000
C        -1.10215944540000   -1.24936486750000   -0.01176579910000
H        -4.69526219060000   -3.17789787930000    0.10401691520000
H        -2.88475464410000   -3.36652355690000    0.22967810770000
H        -4.49151672790000   -0.78747413020000   -0.12919320210000
H        -3.37114879050000    1.24360243880000   -0.06705083940000
H        -2.39229160320000    3.34851550590000   -0.24872833940000
H         0.59804020510000    3.58981673210000    0.35897689940000
H        -0.61360236660000    4.93216180200000    0.12253435260000
H         0.88520921120000    1.50478463190000   -0.05470394570000
H        -0.99397429410000   -2.32010973490000   -0.00365866360000
$end

$rem
BASIS = 6-31G*
GUI = 2
METHOD = B3LYP
PRINT_ORBITALS false
MOLDEN_FORMAT false
--------------------------------------------------------------

             Standard Nuclear Orientation (Angstroms)
    I     Atom           X                Y                Z
 ----------------------------------------------------------------
    1      C       3.7303676696    -2.5652951035    -0.1078523602
    2      C       3.5429336898    -1.2579909327     0.0233301994
    3      C       2.2617007449    -0.5601015081     0.0283249959
    4      C       2.2508395159     0.8339274122     0.0534069195
    5      C       1.0657925233     1.5619735080     0.0499213110
    6      C       1.1288949813     3.0196090968     0.0637115103
    7      C       0.1201346493     3.8562899305    -0.1460976064
    8      C      -0.1505508312     0.8728605620     0.0383041810
    9      C      -0.1396688329    -0.5066704497     0.0205741533
   10      O      -1.3074441423    -1.3013077194     0.0128059220
   11      C      -2.4964587410    -0.7456280055     0.0029312738
   12      F      -2.7372986689     0.0437911901    -1.0616505074
   13      F      -3.4198710174    -1.7026414922    -0.0206824707
   14      F      -2.7668612308     0.0187661978     1.0785470803
   15      C       1.0407735497    -1.2299116213     0.0130091023
   16      H       4.7193013736    -2.9899864771    -0.1036189508
   17      H       2.9194334642    -3.2622816208    -0.2286742224
   18      H       4.4051385757    -0.6115243259     0.1292853305
   19      H       3.1918876350     1.3654743338     0.0671848304
   20      H       2.1166518006     3.4228254575     0.2488476545
   21      H      -0.8818355733     3.5252725606    -0.3579425249
   22      H       0.2664118535     4.9223324902    -0.1220940861
   23      H      -1.0720029840     1.4292482535     0.0561531143
   24      H       0.9822917351    -2.3045193108     0.0051024802
 ----------------------------------------------------------------

    9    -799.2993784000      2.59e-06  Convergence criterion met
 Total energy in the final basis set =     -799.2993784000

                    Orbital Energies (a.u.)
 --------------------------------------------------------------

 Alpha MOs
 -- Occupied --
-24.7296 -24.7278 -24.7276 -19.2241 -10.4820 -10.2736 -10.2115 -10.2113
-10.2026 -10.2018 -10.2004 -10.1998 -10.1974 -10.1902 -10.1895  -1.3263
 -1.2259  -1.2209  -1.1215  -0.8858  -0.8181  -0.8031  -0.7583  -0.7369
 -0.7036  -0.6587  -0.6463  -0.6084  -0.6020  -0.5997  -0.5698  -0.5458
 -0.5212  -0.5021  -0.4801  -0.4706  -0.4652  -0.4620  -0.4542  -0.4415
 -0.4370  -0.4327  -0.4210  -0.4085  -0.4015  -0.3948  -0.3936  -0.3753
 -0.3744  -0.3615  -0.3553  -0.3284  -0.2851  -0.2417  -0.2316

          Ground-State Mulliken Net Atomic Charges

     Atom                 Charge (a.u.)
  ----------------------------------------
      1 C                    -0.347942
      2 C                    -0.113189
      3 C                     0.182265
      4 C                    -0.270108
      5 C                     0.168961
      6 C                    -0.111527
      7 C                    -0.350122
      8 C                    -0.226982
      9 C                     0.351642
     10 O                    -0.523907
     11 C                     0.977117
     12 F                    -0.277560
     13 F                    -0.253594
     14 F                    -0.276896
     15 C                    -0.236760
     16 H                     0.150332
     17 H                     0.148394
     18 H                     0.132359
     19 H                     0.131650
     20 H                     0.132680
     21 H                     0.151481
     22 H                     0.150383
     23 H                     0.161903
     24 H                     0.149420
  ----------------------------------------
  Sum of atomic charges =     0.000000

                    Cartesian Multipole Moments
 -----------------------------------------------------------------
    Charge (ESU x 10^10)
                 0.0000
    Dipole Moment (Debye)
         X       2.4466      Y       0.7577      Z       0.0001
       Tot       2.5613
    Quadrupole Moments (Debye-Ang)
        XX     -80.8074     XY      -2.2810     YY     -76.2822
        XZ       0.6267     YZ       0.3116     ZZ     -88.1879

 Total job time:  37.17s(wall), 37.05s(cpu)
        *  Thank you very much for using Q-Chem.  Have a nice day.  *
