 Q-Chem 5.2, Q-Chem, Inc., Pleasanton, CA (2019)
 Q-Chem 5.2.1 for Intel X86 EM64T Linux

User input:
--------------------------------------------------------------
$molecule
0 1
C        -5.41325123160000   -0.40529680650000    2.02342832130000
C        -4.48157594160000    0.48246296640000    1.68645170390000
C        -3.43638098350000    0.25865572690000    0.72726451060000
C        -2.45860817700000    1.14275201560000    0.34908858000000
C        -1.57195478110000    0.64395882090000   -0.62245860740000
C        -0.40973345610000    1.43140498200000   -1.14156502720000
C         0.88272194380000    1.05126847510000   -0.40880777150000
C         2.07743498660000    1.84528871320000   -0.93022563640000
C         3.37142240840000    1.55364157320000   -0.16971363930000
C         3.88807879800000    0.13248968810000   -0.38964765050000
C         5.29746089230000   -0.08551534640000    0.16150259380000
C         5.37213028500000   -0.00866100170000    1.68496157130000
C         6.76747594260000   -0.34746979490000    2.19550013560000
C        -1.87041086890000   -0.65153855030000   -0.98931748000000
C        -1.18297140170000   -1.47673209770000   -1.94299201560000
C        -1.48416171610000   -2.74450707520000   -2.21303875760000
S        -3.26514273390000   -1.24251487690000   -0.12968597510000
H        -6.17355894270000   -0.18047598000000    2.75006024580000
H        -5.43897992610000   -1.38611525810000    1.57799128980000
H        -4.46947286270000    1.46425149580000    2.14367698800000
H        -2.38262737720000    2.13508056400000    0.75976910600000
H        -0.60668684950000    2.49563802120000   -0.99584450350000
H        -0.28223678110000    1.25826843530000   -2.21246195740000
H         1.05942640900000   -0.01768218460000   -0.53692484330000
H         0.75643425620000    1.24161121270000    0.65965096680000
H         1.85379614890000    2.91208465000000   -0.84544984830000
H         2.22400137970000    1.62385888780000   -1.99052241830000
H         3.20227918850000    1.72521896230000    0.89465221250000
H         4.13680894180000    2.25902992020000   -0.50341637960000
H         3.89937334540000   -0.07267819520000   -1.46335449520000
H         3.21111868510000   -0.58432269810000    0.07862518140000
H         5.97394843480000    0.65623394310000   -0.27034465160000
H         5.64646973060000   -1.07196674660000   -0.15480335010000
H         4.64932339390000   -0.70561671390000    2.11567725250000
H         5.10565492080000    0.99604951420000    2.01686865250000
H         7.04811227560000   -1.35652291270000    1.90071504960000
H         6.80513852220000   -0.28431970160000    3.28064731500000
H         7.50112284920000    0.34380640180000    1.78601927660000
H        -0.36180354060000   -0.99686851550000   -2.45912142900000
H        -2.29208312920000   -3.24968636600000   -1.71005683950000
H        -0.93307448770000   -3.31386049760000   -2.94038038490000
$end

$rem
BASIS = 6-31G*
GUI = 2
METHOD = B3LYP
PRINT_ORBITALS false
MOLDEN_FORMAT false
--------------------------------------------------------------

             Standard Nuclear Orientation (Angstroms)
    I     Atom           X                Y                Z
 ----------------------------------------------------------------
    1      C      -5.4693195850     1.9497752434     1.1913701096
    2      C      -4.4832770671     2.0587924253     0.3050716789
    3      C      -3.5100361513     1.0409331355     0.0234214728
    4      C      -2.4804852710     1.1093030779    -0.8799242412
    5      C      -1.6890747990    -0.0519047171    -0.9441017646
    6      C      -0.4912357561    -0.1698593562    -1.8338037767
    7      C       0.7989755198     0.1296709048    -1.0608132161
    8      C       2.0295929669     0.0104300903    -1.9558251211
    9      C       3.3302563496     0.3804287219    -1.2422315553
   10      C       3.7122536753    -0.6089844674    -0.1421783481
   11      C       5.1236023344    -0.3858214004     0.4018288969
   12      C       5.2803193105     0.9296184288     1.1617415299
   13      C       6.6653768895     1.0553406132     1.7848305791
   14      C      -2.1148076440    -1.0261338651    -0.0656918265
   15      C      -1.5485799476    -2.3291601250     0.1453088686
   16      C      -1.9698490866    -3.2069401344     1.0524631055
   17      S      -3.5103116731    -0.4964920958     0.8318294374
   18      H      -6.1705589806     2.7476142934     1.3596625151
   19      H      -5.6007377296     1.0536037597     1.7750540076
   20      H      -4.3647482436     2.9665907440    -0.2736884543
   21      H      -2.2998098040     1.9779845021    -1.4897574013
   22      H      -0.5892226587     0.5384228519    -2.6592442365
   23      H      -0.4324498826    -1.1739660379    -2.2596745245
   24      H       0.8772867259    -0.5645512095    -0.2228293403
   25      H       0.7427385023     1.1408119524    -0.6506739802
   26      H       1.9022348967     0.6711821541    -2.8174755530
   27      H       2.1037651809    -1.0122346999    -2.3345035474
   28      H       3.2295693078     1.3818695514    -0.8204481032
   29      H       4.1354348730     0.4093929234    -1.9808758573
   30      H       3.6525340731    -1.6223555583    -0.5478634680
   31      H       3.0007960576    -0.5386699270     0.6825994161
   32      H       5.8385298541    -0.4121472645    -0.4243097340
   33      H       5.3710399257    -1.2093447488     1.0767562393
   34      H       4.5230620508     0.9829880914     1.9475062443
   35      H       5.1173456455     1.7687624377     0.4835884736
   36      H       6.8439204705     0.2438458004     2.4872845288
   37      H       6.7622740533     1.9981719321     2.3183386379
   38      H       7.4339942571     1.0158395863     1.0157778183
   39      H      -0.7162071237    -2.5789465084    -0.4994682478
   40      H      -2.7918535558    -2.9828942988     1.7120433142
   41      H      -1.5062215555    -4.1710282465     1.1641319024
 ----------------------------------------------------------------

    9   -1022.3138347464      1.68e-06  Convergence criterion met
 Total energy in the final basis set =    -1022.3138347464

                    Orbital Energies (a.u.)
 --------------------------------------------------------------

 Alpha MOs
 -- Occupied --
-88.8961 -10.2149 -10.2111 -10.1962 -10.1951 -10.1912 -10.1872 -10.1852
-10.1801 -10.1788 -10.1786 -10.1757 -10.1733 -10.1728 -10.1721 -10.1715
-10.1664  -7.9582  -5.9223  -5.9187  -5.9148  -0.8880  -0.8174  -0.8060
 -0.7928  -0.7737  -0.7576  -0.7267  -0.7089  -0.6858  -0.6394  -0.6255
 -0.6099  -0.5828  -0.5693  -0.5565  -0.5472  -0.5131  -0.4935  -0.4771
 -0.4672  -0.4528  -0.4485  -0.4409  -0.4289  -0.4240  -0.4153  -0.4084
 -0.3947  -0.3911  -0.3890  -0.3798  -0.3689  -0.3664  -0.3574  -0.3530
 -0.3484  -0.3378  -0.3332  -0.3295  -0.3244  -0.3188  -0.3099  -0.3071
 -0.3034  -0.2668  -0.2426  -0.1945

          Ground-State Mulliken Net Atomic Charges

     Atom                 Charge (a.u.)
  ----------------------------------------
      1 C                    -0.374645
      2 C                    -0.054982
      3 C                    -0.135640
      4 C                    -0.180248
      5 C                     0.156473
      6 C                    -0.348886
      7 C                    -0.256988
      8 C                    -0.254364
      9 C                    -0.255120
     10 C                    -0.257680
     11 C                    -0.247845
     12 C                    -0.251576
     13 C                    -0.440734
     14 C                    -0.201388
     15 C                    -0.054733
     16 C                    -0.377331
     17 S                     0.239100
     18 H                     0.145908
     19 H                     0.156682
     20 H                     0.136814
     21 H                     0.131128
     22 H                     0.142032
     23 H                     0.145886
     24 H                     0.148705
     25 H                     0.136586
     26 H                     0.126344
     27 H                     0.126583
     28 H                     0.134104
     29 H                     0.126173
     30 H                     0.124000
     31 H                     0.135578
     32 H                     0.125921
     33 H                     0.125678
     34 H                     0.130385
     35 H                     0.136209
     36 H                     0.141690
     37 H                     0.140844
     38 H                     0.141384
     39 H                     0.136802
     40 H                     0.156823
     41 H                     0.144329
  ----------------------------------------
  Sum of atomic charges =     0.000000

                    Cartesian Multipole Moments
 -----------------------------------------------------------------
    Charge (ESU x 10^10)
                 0.0000
    Dipole Moment (Debye)
         X       0.9461      Y       0.5049      Z      -0.7823
       Tot       1.3274
    Quadrupole Moments (Debye-Ang)
        XX    -115.9249     XY      -4.5573     YY    -107.7391
        XZ      -2.5449     YZ      -2.5128     ZZ    -112.6896

 Total job time:  72.60s(wall), 72.20s(cpu)
        *  Thank you very much for using Q-Chem.  Have a nice day.  *
