 Q-Chem 5.2, Q-Chem, Inc., Pleasanton, CA (2019)
 Q-Chem 5.2.1 for Intel X86 EM64T Linux

User input:
--------------------------------------------------------------
$molecule
0 1
C         3.60736752300000   -0.70337244100000   -0.00389898300000
C         2.79685383950000    0.34814940860000   -0.00584340720000
C         1.34562319040000    0.23779091270000   -0.00045317180000
C         0.52899284110000    1.38198758720000   -0.00432211170000
C        -0.83273852070000    1.20064187680000   -0.00059745700000
C        -1.31247102540000   -0.12016520600000    0.00618743220000
C        -2.72106704010000   -0.48753038290000    0.00813699360000
C        -3.74907643860000    0.35171904530000   -0.01924236860000
N        -0.46701283500000   -1.15179407260000    0.01240841280000
N         0.80954259360000   -0.98218541300000    0.00916726860000
H         4.67845189720000   -0.59707654810000   -0.00854900710000
H         3.20196412870000   -1.70034278840000    0.00217795050000
H         3.18713601810000    1.35813823560000   -0.01223483550000
H         0.96902288060000    2.36934910480000   -0.00938208120000
H        -1.50955882590000    2.04131690790000   -0.00144889500000
H        -2.88249503490000   -1.55641979900000    0.03158889760000
H        -3.63106798950000    1.42215730260000   -0.04614989980000
H        -4.76335120820000   -0.00836021580000   -0.01710625840000
$end

$rem
BASIS = 6-31G*
GUI = 2
METHOD = B3LYP
PRINT_ORBITALS false
MOLDEN_FORMAT false
--------------------------------------------------------------

             Standard Nuclear Orientation (Angstroms)
    I     Atom           X                Y                Z
 ----------------------------------------------------------------
    1      C       3.6434600709    -0.5521756419    -0.0088202631
    2      C       2.7832899549     0.4591173322    -0.0035000930
    3      C       1.3390525858     0.2790232440     0.0012947093
    4      C       0.4683129602     1.3826003364     0.0053235571
    5      C      -0.8831139384     1.1359207148     0.0079586114
    6      C      -1.2987366152    -0.2064554288     0.0057813378
    7      C      -2.6880242545    -0.6411776369     0.0053769000
    8      C      -3.7552356976     0.1478016741    -0.0161623246
    9      N      -0.4046177591    -1.1962266198     0.0048695881
   10      N       0.8622968110    -0.9653719088     0.0026471959
   11      H       4.7081872909    -0.3944360025    -0.0128612459
   12      H       3.2864985595    -1.5675163371    -0.0095034538
   13      H       3.1245212388     1.4867356758    -0.0030408970
   14      H       0.8603237856     2.3900027677     0.0069543436
   15      H      -1.5996000748     1.9430415093     0.0129182206
   16      H      -2.7978249569    -1.7167313457     0.0215509055
   17      H      -3.6888802809     1.2228367021    -0.0357765832
   18      H      -4.7510093226    -0.2606708327    -0.0163733869
 ----------------------------------------------------------------

    9    -419.0898181692      1.90e-06  Convergence criterion met
 Total energy in the final basis set =     -419.0898181692

                    Orbital Energies (a.u.)
 --------------------------------------------------------------

 Alpha MOs
 -- Occupied --
-14.3583 -14.3570 -10.2339 -10.2332 -10.2177 -10.2166 -10.1966 -10.1955
-10.1925 -10.1865  -1.0295  -0.8544  -0.8340  -0.7804  -0.7525  -0.6740
 -0.6593  -0.5909  -0.5799  -0.5266  -0.5100  -0.4761  -0.4554  -0.4387
 -0.4372  -0.4310  -0.4080  -0.3745  -0.3658  -0.3436  -0.3167  -0.3126
 -0.2807  -0.2321  -0.2184

          Ground-State Mulliken Net Atomic Charges

     Atom                 Charge (a.u.)
  ----------------------------------------
      1 C                    -0.325821
      2 C                    -0.113850
      3 C                     0.333470
      4 C                    -0.158410
      5 C                    -0.144292
      6 C                     0.303352
      7 C                    -0.082547
      8 C                    -0.349900
      9 N                    -0.331620
     10 N                    -0.334945
     11 H                     0.146367
     12 H                     0.182786
     13 H                     0.128966
     14 H                     0.147867
     15 H                     0.147126
     16 H                     0.154043
     17 H                     0.142479
     18 H                     0.154930
  ----------------------------------------
  Sum of atomic charges =     0.000000

                    Cartesian Multipole Moments
 -----------------------------------------------------------------
    Charge (ESU x 10^10)
                 0.0000
    Dipole Moment (Debye)
         X      -0.4535      Y       3.3841      Z      -0.0029
       Tot       3.4144
    Quadrupole Moments (Debye-Ang)
        XX     -47.8503     XY       0.7036     YY     -56.6194
        XZ      -0.0050     YZ      -0.0137     ZZ     -60.7717

 Total job time:  17.30s(wall), 16.66s(cpu)
        *  Thank you very much for using Q-Chem.  Have a nice day.  *
