 Q-Chem 5.4, Q-Chem, Inc., Pleasanton, CA (2021)
 Q-Chem 5.4.2 for Intel X86 EM64T Linux

User input:
--------------------------------------------------------------
$molecule
0 1
C           -0.03109532340000        4.86257797740000        0.13248136160000
C           -0.93640252870000        3.89247291750000        0.10412730840000
C           -0.66793629740000        2.45818580140000        0.09606346930000
C           -1.74045700830000        1.57124440250000        0.02479828650000
C           -1.55890212120000        0.18790577160000        0.00985813390000
C           -2.74472350550000       -0.65281707210000       -0.07020271580000
C           -2.81524828640000       -1.97442709480000       -0.12660921420000
F           -1.81913555630000       -2.84948509610000       -0.12447307160000
F           -3.96859337300000       -2.63568289440000       -0.19950057640000
C           -0.26285953830000       -0.32113791370000        0.07316260040000
C            0.81621072660000        0.55196631950000        0.14801780230000
C            2.21622871070000        0.05374500060000        0.21857948180000
O            3.18353268970000        0.77574557760000        0.24885001360000
O            2.28033770660000       -1.28060310760000        0.25834235990000
C            3.58098425630000       -1.86577627630000        0.31138190630000
C            4.19587626800000       -1.98013279500000       -1.07616548790000
C            0.61845100160000        1.92687028950000        0.15756514870000
H           -0.32377510270000        5.89842866300000        0.13509780600000
H            1.02771448330000        4.67152857810000        0.15268258920000
H           -1.98752213580000        4.15326080790000        0.08121152470000
H           -2.74521720250000        1.96782705350000       -0.02260543310000
H           -3.69723382750000       -0.14292292320000       -0.08928460340000
H           -0.07625561680000       -1.38112632980000        0.06696717660000
H            3.42953838320000       -2.85063308270000        0.75804039290000
H            4.21879129980000       -1.25455286100000        0.95860971260000
H            3.53933602210000       -2.54601951680000       -1.73279237330000
H            5.15468709250000       -2.48604780020000       -1.00896848970000
H            4.34887337020000       -0.98920515780000       -1.49665567960000
H            1.48754268120000        2.56228797740000        0.21682296350000
$end

$rem
BASIS = 6-31G*
GUI = 2
METHOD = B3LYP
PRINT_ORBITALS false
MOLDEN_FORMAT false
$end
--------------------------------------------------------------

             Standard Nuclear Orientation (Angstroms)
    I     Atom           X                Y                Z
 ----------------------------------------------------------------
    1      C       0.0246395913    -4.8118517283     0.1339998983
    2      C      -0.9078115326    -3.8676094220     0.1132566125
    3      C      -0.6803130024    -2.4281774340     0.0384325177
    4      C      -1.7773290672    -1.5692112671     0.0663130563
    5      C      -1.6352196422    -0.1826855094     0.0017964882
    6      C      -2.8441286842     0.6274597769     0.0418032145
    7      C      -2.9520330094     1.9476268521     0.0238021051
    8      F      -1.9812968834     2.8488884115    -0.0342548930
    9      F      -4.1233970341     2.5791744353     0.0665951396
   10      C      -0.3545390397     0.3582822915    -0.0985545889
   11      C       0.7486119574    -0.4868935412    -0.1308443604
   12      C       2.1334979544     0.0457931909    -0.2384984810
   13      O       3.1208366999    -0.6492039468    -0.2341045732
   14      O       2.1593429497     1.3770121873    -0.3541010041
   15      C       3.4425046177     1.9946687172    -0.4485405246
   16      C       4.0605874164     2.2048536186     0.9263243167
   17      C       0.5900900560    -1.8651524699    -0.0613165259
   18      H      -0.2383962450    -5.8540212653     0.1918768966
   19      H       1.0774616886    -4.5924820477     0.0962011664
   20      H      -1.9509451379    -4.1562066834     0.1576614255
   21      H      -2.7701324740    -1.9906341901     0.1425500214
   22      H      -3.7816102638     0.0928191753     0.0958382978
   23      H      -0.1982056074     1.4217536102    -0.1535405973
   24      H       3.2608823435     2.9479361723    -0.9492171604
   25      H       4.0943429017     1.3659336892    -1.0642473035
   26      H       3.3913618478     2.7883481575     1.5541005541
   27      H       5.0042476905     2.7329708691     0.8244367162
   28      H       4.2438068445     1.2440865942     1.4012085792
   29      H       1.4766487793    -2.4781540771    -0.0901285686
 ----------------------------------------------------------------

    9    -852.7133717430      6.97e-06  Convergence criterion met
 Total energy in the final basis set =     -852.7133717430

                    Orbital Energies (a.u.)
 --------------------------------------------------------------

 Alpha MOs
 -- Occupied --
-24.7491 -24.7383 -19.1915 -19.1321 -10.3618 -10.3135 -10.2427 -10.2139
-10.2077 -10.2043 -10.2040 -10.2001 -10.1963 -10.1954 -10.1945 -10.1847
-10.1798  -1.2905  -1.2291  -1.1089  -1.0171  -0.8807  -0.8210  -0.8027
 -0.7732  -0.7533  -0.7317  -0.6746  -0.6541  -0.6328  -0.6199  -0.5867
 -0.5698  -0.5547  -0.5304  -0.5237  -0.5153  -0.4980  -0.4844  -0.4775
 -0.4643  -0.4524  -0.4455  -0.4452  -0.4354  -0.4350  -0.4159  -0.4146
 -0.4088  -0.3947  -0.3811  -0.3796  -0.3755  -0.3578  -0.3517  -0.3393
 -0.3246  -0.2993  -0.2897  -0.2738  -0.2411  -0.2237

          Ground-State Mulliken Net Atomic Charges

     Atom                 Charge (a.u.)
  ----------------------------------------
      1 C                    -0.350863
      2 C                    -0.111362
      3 C                     0.179023
      4 C                    -0.263678
      5 C                     0.198462
      6 C                    -0.298661
      7 C                     0.548351
      8 F                    -0.230866
      9 F                    -0.247144
     10 C                    -0.234421
     11 C                     0.046765
     12 C                     0.606294
     13 O                    -0.493138
     14 O                    -0.466894
     15 C                    -0.046003
     16 C                    -0.464762
     17 C                    -0.223633
     18 H                     0.147420
     19 H                     0.153603
     20 H                     0.127418
     21 H                     0.130906
     22 H                     0.160664
     23 H                     0.162348
     24 H                     0.152476
     25 H                     0.168855
     26 H                     0.157594
     27 H                     0.152030
     28 H                     0.178933
     29 H                     0.160283
  ----------------------------------------
  Sum of atomic charges =     0.000000

                    Cartesian Multipole Moments
 -----------------------------------------------------------------
    Charge (ESU x 10^10)
                 0.0000
    Dipole Moment (Debye)
         X      -0.9525      Y       0.2925      Z       0.1295
       Tot       1.0048
    Quadrupole Moments (Debye-Ang)
        XX     -92.6336     XY      11.5268     YY     -89.4915
        XZ      -0.2977     YZ      -0.9049     ZZ     -97.8982

 Total job time:  93.92s(wall), 80.92s(cpu)
        *  Thank you very much for using Q-Chem.  Have a nice day.  *
