 Q-Chem 5.4, Q-Chem, Inc., Pleasanton, CA (2021)
 Q-Chem 5.4.2 for Intel X86 EM64T Linux

User input:
--------------------------------------------------------------
$molecule
0 1
C           -2.02409082350000        3.94176623250000        0.12730085500000
C           -0.80583680220000        3.41541633600000        0.14949326360000
C           -0.46701545880000        1.99868874760000        0.05623922760000
C           -1.43206765370000        0.99265348370000        0.05128816510000
C           -1.07821704040000       -0.35221920880000       -0.04202414360000
C           -2.05260982770000       -1.43434624520000       -0.05081512060000
C           -3.37365529130000       -1.35812366170000        0.00833624730000
F           -4.12886416990000       -0.26953915950000        0.09090197710000
F           -4.16449267800000       -2.42849427670000       -0.00887998720000
C            0.27165528810000       -0.69420684360000       -0.13060638100000
C            1.24415903850000        0.29662182670000       -0.12354141980000
C            2.69230077310000       -0.02554208040000       -0.21151585890000
O            3.56838299740000        0.80419995200000       -0.18857097010000
O            2.91492592030000       -1.34039283240000       -0.33137992620000
C            4.27747491440000       -1.75907931080000       -0.40772966290000
C            4.90203057260000       -1.87701263530000        0.97521266190000
C            0.87512884470000        1.63319026400000       -0.02831482380000
H           -2.17182673520000        5.00553814030000        0.19867307900000
H           -2.91809567350000        3.34940285370000        0.03404432310000
H            0.05046132650000        4.07246167260000        0.23455462680000
H           -2.47010196770000        1.26658201450000        0.12766062830000
H           -1.65471287660000       -2.43674843530000       -0.11599748970000
H            0.56782200210000       -1.72871268580000       -0.20276785380000
H            4.83608537020000       -1.03854858000000       -1.01423074470000
H            4.24823617000000       -2.72752415350000       -0.91162042240000
H            4.93246394360000       -0.90054871830000        1.45223221390000
H            5.91574285540000       -2.25660662270000        0.88556603990000
H            4.32083640710000       -2.55572246110000        1.59504919800000
H            1.65339557020000        2.38206113840000       -0.02437490120000
$end

$rem
BASIS = 6-31G*
GUI = 2
METHOD = B3LYP
PRINT_ORBITALS false
MOLDEN_FORMAT false
$end
--------------------------------------------------------------

             Standard Nuclear Orientation (Angstroms)
    I     Atom           X                Y                Z
 ----------------------------------------------------------------
    1      C       2.6528861591    -3.5867784589     0.1050996131
    2      C       1.3729823373    -3.2358439984     0.1243554793
    3      C       0.8400240502    -1.8796946321     0.0381717334
    4      C       1.6551361761    -0.7487609854     0.0443776282
    5      C       1.1173309855     0.5341410008    -0.0423868414
    6      C       1.9310817169     1.7417497648    -0.0395009524
    7      C       3.2495678082     1.8503171205     0.0259011870
    8      F       4.1490482432     0.8772990085     0.1055533628
    9      F       3.8832404768     3.0207142821     0.0193546099
   10      C      -0.2666911070     0.6849061024    -0.1357163118
   11      C      -1.0913141650    -0.4320251569    -0.1397519404
   12      C      -2.5698759208    -0.3146138793    -0.2330969695
   13      O      -3.3215856149    -1.2586864938    -0.2197625667
   14      O      -2.9734392497     0.9570649600    -0.3459305639
   15      C      -4.3807759213     1.1819219992    -0.4266164698
   16      C      -5.0214488718     1.2020138978     0.9538334566
   17      C      -0.5396459797    -1.7045981469    -0.0509444261
   18      H       2.9474334450    -4.6199674829     0.1706198601
   19      H       3.4557867329    -2.8747692450     0.0200738942
   20      H       0.6164858557    -4.0065791894     0.2009768462
   21      H       2.7209251810    -0.8755909959     0.1243324641
   22      H       1.3973716167     2.6792012168    -0.1004860302
   23      H      -0.7041229806     1.6683976192    -0.2029631014
   24      H      -4.8307515473     0.3946300142    -1.0404136707
   25      H      -4.4849660562     2.1483949547    -0.9243319076
   26      H      -4.9172095832     0.2276180441     1.4246227037
   27      H      -6.0778554258     1.4369587518     0.8613844843
   28      H      -4.5433263217     1.9509573651     1.5808211175
   29      H      -1.2057140863    -2.5548061646    -0.0556144867
 ----------------------------------------------------------------

    9    -852.7134034654      6.49e-06  Convergence criterion met
 Total energy in the final basis set =     -852.7134034654

                    Orbital Energies (a.u.)
 --------------------------------------------------------------

 Alpha MOs
 -- Occupied --
-24.7503 -24.7392 -19.1924 -19.1333 -10.3626 -10.3147 -10.2438 -10.2148
-10.2083 -10.2046 -10.2041 -10.1999 -10.1974 -10.1954 -10.1946 -10.1848
-10.1809  -1.2913  -1.2301  -1.1094  -1.0181  -0.8811  -0.8211  -0.8042
 -0.7737  -0.7499  -0.7359  -0.6754  -0.6512  -0.6412  -0.6113  -0.5901
 -0.5724  -0.5520  -0.5430  -0.5246  -0.5102  -0.4961  -0.4820  -0.4735
 -0.4675  -0.4577  -0.4463  -0.4432  -0.4414  -0.4345  -0.4198  -0.4118
 -0.4090  -0.3958  -0.3832  -0.3803  -0.3739  -0.3589  -0.3507  -0.3410
 -0.3246  -0.3004  -0.2906  -0.2750  -0.2394  -0.2260

          Ground-State Mulliken Net Atomic Charges

     Atom                 Charge (a.u.)
  ----------------------------------------
      1 C                    -0.353178
      2 C                    -0.110148
      3 C                     0.174984
      4 C                    -0.248333
      5 C                     0.197404
      6 C                    -0.296696
      7 C                     0.546509
      8 F                    -0.232572
      9 F                    -0.246255
     10 C                    -0.235572
     11 C                     0.050233
     12 C                     0.603763
     13 O                    -0.491311
     14 O                    -0.469560
     15 C                    -0.045969
     16 C                    -0.464555
     17 C                    -0.236082
     18 H                     0.148437
     19 H                     0.147912
     20 H                     0.134651
     21 H                     0.141627
     22 H                     0.162604
     23 H                     0.152829
     24 H                     0.169429
     25 H                     0.151219
     26 H                     0.179654
     27 H                     0.152234
     28 H                     0.156393
     29 H                     0.160347
  ----------------------------------------
  Sum of atomic charges =     0.000000

                    Cartesian Multipole Moments
 -----------------------------------------------------------------
    Charge (ESU x 10^10)
                -0.0000
    Dipole Moment (Debye)
         X      -0.1966      Y       1.3791      Z       0.0667
       Tot       1.3946
    Quadrupole Moments (Debye-Ang)
        XX     -92.8871     XY     -11.3050     YY     -91.6611
        XZ       0.0490     YZ      -0.9649     ZZ     -97.8939

 Total job time:  84.72s(wall), 80.58s(cpu)
        *  Thank you very much for using Q-Chem.  Have a nice day.  *
