 Q-Chem 5.2, Q-Chem, Inc., Pleasanton, CA (2019)
 Q-Chem 5.2.1 for Intel X86 EM64T Linux

User input:
--------------------------------------------------------------
$molecule
0 1
C        -4.41990853750000    0.14397742460000    0.10672768840000
C        -3.23101995250000    0.73531562650000    0.09302511700000
C        -1.93451751770000    0.07818249700000   -0.00314020800000
C        -1.78101933830000   -1.30087487360000   -0.16424044500000
C        -0.52794744820000   -1.86701122850000   -0.24817825010000
C         0.63277408830000   -1.09532809300000   -0.16970931800000
C         1.93279658710000   -1.75817611010000   -0.18834691890000
C         2.98746411260000   -1.39377050770000    0.52701830710000
C         0.48806800340000    0.29169075250000   -0.03278840550000
C         1.65814960170000    1.21984293420000   -0.09315715450000
O         2.46365721320000    1.23635758810000   -0.97825961080000
O         1.71986420120000    2.11576579250000    0.91844795400000
C        -0.77811650760000    0.85552998880000    0.05538382330000
H        -5.32715811380000    0.71802955890000    0.18194675510000
H        -4.54285702810000   -0.92357056850000    0.04615954520000
H        -3.18331173210000    1.81547826700000    0.16199929860000
H        -2.65125933140000   -1.93466498170000   -0.22982254220000
H        -0.43276537680000   -2.93698410040000   -0.36494232300000
H         1.98231577330000   -2.64754780390000   -0.80353584480000
H         2.97387392810000   -0.54313631050000    1.18772759660000
H         3.91308816250000   -1.94055300980000    0.48116360210000
H         0.99956467980000    1.99733417630000    1.55234165490000
H        -0.87486189620000    1.93137535680000    0.13551990990000
$end

$rem
BASIS = 6-31G*
GUI = 2
METHOD = B3LYP
PRINT_ORBITALS false
MOLDEN_FORMAT false
--------------------------------------------------------------

             Standard Nuclear Orientation (Angstroms)
    I     Atom           X                Y                Z
 ----------------------------------------------------------------
    1      C       4.3811822597     0.1847670291    -0.0861981131
    2      C       3.1912844047     0.7696391646    -0.0127653081
    3      C       1.8961596929     0.1037204182     0.0217960416
    4      C       1.7454527478    -1.2847617090     0.0486103664
    5      C       0.4935707453    -1.8588411161     0.0797451608
    6      C      -0.6686819539    -1.0854753250     0.0788869778
    7      C      -1.9674876330    -1.7495652516     0.0357392246
    8      C      -3.0243723892    -1.3195372834    -0.6387479864
    9      C      -0.5267277930     0.3085668712     0.0769282388
   10      C      -1.6983105790     1.2241709421     0.2294561572
   11      O      -2.5018917959     1.1531248681     1.1136118490
   12      O      -1.7638384166     2.2139126433    -0.6902986051
   13      C       0.7382614942     0.8807967885     0.0413295451
   14      H       5.2872485821     0.7651968983    -0.1071871836
   15      H       4.5061490366    -0.8833754832    -0.1297690542
   16      H       3.1415167797     1.8513008665     0.0235112415
   17      H       2.6169531331    -1.9202077151     0.0506128520
   18      H       0.4005360690    -2.9352806511     0.0923109316
   19      H      -2.0140791130    -2.6945359052     0.5618107709
   20      H      -3.0137417691    -0.4087745342    -1.2138116355
   21      H      -3.9489260384    -1.8700128548    -0.6443009326
   22      H      -1.0447308635     2.1589764994    -1.3341503112
   23      H       0.8329299046     1.9595296167     0.0657855418
 ----------------------------------------------------------------

    9    -575.5974007705      6.67e-06  Convergence criterion met
 Total energy in the final basis set =     -575.5974007705

                    Orbital Energies (a.u.)
 --------------------------------------------------------------

 Alpha MOs
 -- Occupied --
-19.1949 -19.1295 -10.3171 -10.2137 -10.2131 -10.2113 -10.2090 -10.2037
-10.2028 -10.2024 -10.1950 -10.1919 -10.1860  -1.1021  -1.0195  -0.8856
 -0.8223  -0.7805  -0.7742  -0.7298  -0.6650  -0.6323  -0.6199  -0.5903
 -0.5844  -0.5217  -0.5072  -0.4992  -0.4677  -0.4564  -0.4456  -0.4434
 -0.4351  -0.4166  -0.4030  -0.4012  -0.3862  -0.3705  -0.3610  -0.3514
 -0.3268  -0.3165  -0.2788  -0.2736  -0.2616  -0.2250

          Ground-State Mulliken Net Atomic Charges

     Atom                 Charge (a.u.)
  ----------------------------------------
      1 C                    -0.350734
      2 C                    -0.114198
      3 C                     0.185758
      4 C                    -0.173111
      5 C                    -0.193478
      6 C                     0.139248
      7 C                    -0.117934
      8 C                    -0.324842
      9 C                    -0.012516
     10 C                     0.518336
     11 O                    -0.421040
     12 O                    -0.569752
     13 C                    -0.265389
     14 H                     0.150711
     15 H                     0.146430
     16 H                     0.131287
     17 H                     0.135501
     18 H                     0.138270
     19 H                     0.139166
     20 H                     0.152479
     21 H                     0.151918
     22 H                     0.411922
     23 H                     0.141968
  ----------------------------------------
  Sum of atomic charges =     0.000000

                    Cartesian Multipole Moments
 -----------------------------------------------------------------
    Charge (ESU x 10^10)
                 0.0000
    Dipole Moment (Debye)
         X       3.3956      Y      -1.4772      Z      -2.3252
       Tot       4.3725
    Quadrupole Moments (Debye-Ang)
        XX     -76.2989     XY       7.1491     YY     -69.3174
        XZ       4.9743     YZ      -4.3681     ZZ     -77.8962

 Total job time:  32.14s(wall), 31.91s(cpu)
        *  Thank you very much for using Q-Chem.  Have a nice day.  *
