 Q-Chem 5.2, Q-Chem, Inc., Pleasanton, CA (2019)
 Q-Chem 5.2.1 for Intel X86 EM64T Linux

User input:
--------------------------------------------------------------
$molecule
0 1
C        -3.67801132270000    1.09803840870000   -0.02770679670000
C        -2.88259503100000    0.03469473850000    0.00050146100000
C        -1.42767700530000    0.04996442730000    0.00280766350000
C        -0.66260897590000    1.21688046190000    0.00295760900000
C         0.71270989320000    1.15314377760000    0.00643657010000
F         1.39373010220000    2.32028587110000    0.00684386280000
C         1.42768306000000   -0.05001176050000    0.00829883730000
C         2.88261469340000   -0.03489661820000    0.01162968940000
C         3.67781037260000   -1.09761189180000   -0.03787389210000
C         0.66265125570000   -1.21693073770000    0.00940695960000
C        -0.71267787640000   -1.15318964370000    0.00707996110000
F        -1.39364160860000   -2.32036413260000    0.00922075840000
H        -4.74846311750000    0.98944065470000   -0.02721903490000
H        -3.30636042110000    2.10784444120000   -0.05331138070000
H        -3.32182820770000   -0.95381524230000    0.02201660380000
H        -1.13473247070000    2.18543191960000    0.00209590130000
H         3.32192623340000    0.95288205970000    0.05480769410000
H         3.30584640390000   -2.10636380440000   -0.08863654770000
H         4.74829132610000   -0.98947826090000   -0.03145284610000
H         1.13485503960000   -2.18543377650000    0.01506426580000
$end

$rem
BASIS = 6-31G*
GUI = 2
METHOD = B3LYP
PRINT_ORBITALS false
MOLDEN_FORMAT false
--------------------------------------------------------------

             Standard Nuclear Orientation (Angstroms)
    I     Atom           X                Y                Z
 ----------------------------------------------------------------
    1      C       3.7323856529    -0.8959386809    -0.0272935615
    2      C       2.8801981503     0.1224657763     0.0011909236
    3      C       1.4282748561     0.0279228232     0.0034976751
    4      C       0.7279427570    -1.1789562399     0.0033495312
    5      C      -0.6488056441    -1.1902722706     0.0068491379
    6      F      -1.2652025196    -2.3927963816     0.0069580242
    7      C      -1.4282900073    -0.0278727066     0.0090233830
    8      C      -2.8802352946    -0.1222623479     0.0123548239
    9      C      -3.7321695933     0.8955466361    -0.0368726901
   10      C      -0.7279942184     1.1790069971     0.0104295955
   11      C       0.6487646906     1.1903188880     0.0080819502
   12      F       1.2651034511     2.3928716135     0.0105211623
   13      H       4.7953276736    -0.7291611253    -0.0267811357
   14      H       3.4163227515    -1.9244927805    -0.0531569946
   15      H       3.2649034771     1.1334398707     0.0229592243
   16      H       1.2521521186    -2.1203363813     0.0022369970
   17      H      -3.2650576186    -1.1325271183     0.0552798570
   18      H      -3.4157379454     1.9230848655    -0.0873767665
   19      H      -4.7951659067     0.7292291496    -0.0304761888
   20      H      -1.2522810288     2.1203331836     0.0163377159
 ----------------------------------------------------------------

    8    -585.5129308369      5.25e-06  Convergence criterion met
 Total energy in the final basis set =     -585.5129308369

                    Orbital Energies (a.u.)
 --------------------------------------------------------------

 Alpha MOs
 -- Occupied --
-24.7110 -24.7110 -10.2757 -10.2757 -10.2136 -10.2136 -10.2030 -10.2030
-10.1988 -10.1988 -10.1889 -10.1889  -1.2226  -1.2224  -0.8836  -0.8221
 -0.7790  -0.7576  -0.7303  -0.6652  -0.6220  -0.5921  -0.5786  -0.5344
 -0.5308  -0.5245  -0.4715  -0.4700  -0.4596  -0.4592  -0.4535  -0.4398
 -0.4251  -0.4206  -0.3802  -0.3722  -0.3709  -0.3670  -0.3467  -0.3324
 -0.2766  -0.2512  -0.2194

          Ground-State Mulliken Net Atomic Charges

     Atom                 Charge (a.u.)
  ----------------------------------------
      1 C                    -0.345236
      2 C                    -0.112087
      3 C                     0.110426
      4 C                    -0.272497
      5 C                     0.318709
      6 F                    -0.294185
      7 C                     0.110257
      8 C                    -0.112079
      9 C                    -0.345180
     10 C                    -0.272436
     11 C                     0.318628
     12 F                    -0.294193
     13 H                     0.151532
     14 H                     0.145746
     15 H                     0.148619
     16 H                     0.149019
     17 H                     0.148629
     18 H                     0.145761
     19 H                     0.151527
     20 H                     0.149039
  ----------------------------------------
  Sum of atomic charges =     0.000000

                    Cartesian Multipole Moments
 -----------------------------------------------------------------
    Charge (ESU x 10^10)
                 0.0000
    Dipole Moment (Debye)
         X      -0.0007      Y       0.0000      Z      -0.0024
       Tot       0.0025
    Quadrupole Moments (Debye-Ang)
        XX     -59.5854     XY      -4.7427     YY     -67.2516
        XZ      -0.0221     YZ      -0.0511     ZZ     -70.7839

 Total job time:  21.28s(wall), 21.19s(cpu)
        *  Thank you very much for using Q-Chem.  Have a nice day.  *
