 Q-Chem 5.2, Q-Chem, Inc., Pleasanton, CA (2019)
 Q-Chem 5.2.1 for Intel X86 EM64T Linux

User input:
--------------------------------------------------------------
$molecule
0 1
C         1.04112120340000   -0.31210474360000   -3.13597822890000
C         1.41545014410000    0.50628211060000   -2.16178315270000
C         0.55707886820000    0.93259874440000   -1.05761386860000
C        -0.80429045720000    1.11974839240000   -1.27192511640000
C        -1.68380006260000    1.50592024070000   -0.27081689940000
C        -3.13234444950000    1.72212403060000   -0.62328882070000
C        -3.79888923190000    0.47835838830000   -1.22333962840000
C        -3.83133551010000   -0.69941013700000   -0.25380010380000
C        -4.38529447350000   -1.95992190750000   -0.91396020790000
C        -4.36265829040000   -3.18324397510000    0.00325021500000
C        -5.33304020170000   -3.07578767410000    1.17395381290000
C        -1.16507669520000    1.74833653160000    1.00427546410000
C        -1.96405157460000    2.19371747180000    2.15634994270000
C        -3.00037792910000    1.55399055320000    2.67307131070000
C         0.20505159900000    1.59926201720000    1.21246535720000
C         1.07599743680000    1.18800771490000    0.22007485260000
C         2.52773513520000    0.97885114820000    0.54228126580000
C         2.85762614460000   -0.51615438820000    0.62386272540000
C         4.32312076650000   -0.79453322320000    0.95865103850000
C         5.27147015170000   -0.46818556560000   -0.19353734250000
C         6.73855587120000   -0.74754958520000    0.13662304140000
C         7.05390192200000   -2.23197698150000    0.28012121290000
H         1.71121785410000   -0.58792447410000   -3.93266205370000
H         0.05918728410000   -0.75423500250000   -3.16697626830000
H         2.42633424750000    0.89294722360000   -2.15840455660000
H        -1.18571845550000    0.98085532180000   -2.27282586180000
H        -3.18690637110000    2.52860897160000   -1.36190351370000
H        -3.68688268980000    2.04252482900000    0.25870138300000
H        -3.26556014140000    0.17904746650000   -2.12774233240000
H        -4.82045919490000    0.73346206250000   -1.51613063230000
H        -4.45345323580000   -0.43485623580000    0.60248142010000
H        -2.81778433960000   -0.89510834340000    0.10549641250000
H        -3.78874839620000   -2.18019071670000   -1.80315401760000
H        -5.41101836040000   -1.77564278160000   -1.24338055480000
H        -3.34882386400000   -3.32741520730000    0.38399785050000
H        -4.62204312460000   -4.06545974420000   -0.58727861830000
H        -5.04992694730000   -2.26909356140000    1.84492662080000
H        -5.33960787520000   -4.00175178620000    1.74479541660000
H        -6.34281314160000   -2.88773755050000    0.81492774270000
H        -1.60299601640000    3.09960642910000    2.63093397130000
H        -3.35831955900000    0.62702965020000    2.25969273330000
H        -3.51910679510000    1.92373927960000    3.54201299510000
H         0.59632315440000    1.80130496850000    2.20095864120000
H         2.75819089470000    1.44650900730000    1.50209055330000
H         3.15137877190000    1.45349454640000   -0.21715893720000
H         2.60515072030000   -0.99313604930000   -0.32585329070000
H         2.22443258240000   -0.96290676700000    1.39475211250000
H         4.41963402910000   -1.85197280620000    1.21064062280000
H         4.61101897100000   -0.21540652840000    1.83968598750000
H         5.17617877310000    0.58887438930000   -0.45010519340000
H         4.98285121330000   -1.05079795340000   -1.07192695290000
H         7.00411900970000   -0.22904269870000    1.06093075270000
H         7.35900893950000   -0.33416357420000   -0.66250522890000
H         6.53050101990000   -2.66427821160000    1.12883437030000
H         8.12110080920000   -2.37741124780000    0.43244980060000
H         6.75937329690000   -2.77152129570000   -0.61760938560000
$end

$rem
BASIS = 6-31G*
GUI = 2
METHOD = B3LYP
PRINT_ORBITALS false
MOLDEN_FORMAT false
--------------------------------------------------------------

             Standard Nuclear Orientation (Angstroms)
    I     Atom           X                Y                Z
 ----------------------------------------------------------------
    1      C      -1.0736858108     1.0957125801    -2.9375379602
    2      C      -1.4272797848     0.0372756071    -2.2208666817
    3      C      -0.5497765273    -0.6650276080    -1.2857222252
    4      C       0.8099306106    -0.7700116887    -1.5585877303
    5      C       1.7067697409    -1.4052144345    -0.7117816424
    6      C       3.1519211880    -1.4992353975    -1.1264607091
    7      C       3.7994445797    -0.1307774196    -1.3700425467
    8      C       3.8357982555     0.7365089138    -0.1151755513
    9      C       4.3697573410     2.1361987254    -0.4106885732
   10      C       4.3499116502     3.0609739354     0.8069736120
   11      C       5.3376866011     2.6484050838     1.8922488828
   12      C       1.2082537030    -1.9939558426     0.4537935117
   13      C       2.0272085050    -2.7284294504     1.4304522012
   14      C       3.0653782013    -2.2424682351     2.0909589721
   15      C      -0.1599794874    -1.9240135558     0.7104329441
   16      C      -1.0483421300    -1.2669771851    -0.1212104229
   17      C      -2.4970572861    -1.1714772488     0.2624690602
   18      C      -2.8382568787     0.2398890268     0.7545597434
   19      C      -4.3011277430     0.3983438622     1.1694734415
   20      C      -5.2629796365     0.3889370859    -0.0171856767
   21      C      -6.7275153502     0.5495885648     0.3935659376
   22      C      -7.0532041295     1.9339883444     0.9421309941
   23      H      -1.7573137815     1.5712757514    -3.6204022435
   24      H      -0.0960257887     1.5411048827    -2.8572830905
   25      H      -2.4347424886    -0.3475558155    -2.3121446727
   26      H       1.1759302277    -0.3576022836    -2.4873200211
   27      H       3.2027359936    -2.0717233748    -2.0584596359
   28      H       3.7215910214    -2.0424271515    -0.3724746017
   29      H       3.2508392317     0.3985286292    -2.1516041096
   30      H       4.8188527252    -0.2836600287    -1.7331452684
   31      H       4.4722059017     0.2548742334     0.6286326376
   32      H       2.8258494557     0.8141350847     0.2955011454
   33      H       3.7588211000     2.5845716494    -1.1985780530
   34      H       5.3922059167     2.0615116729    -0.7896434618
   35      H       3.3404155063     3.0831676314     1.2241538195
   36      H       4.5934915156     4.0742782616     0.4780471001
   37      H       5.0708918976     1.6853972825     2.3195070906
   38      H       5.3446105388     3.3824963071     2.6949785650
   39      H       6.3437975161     2.5780144109     1.4839720920
   40      H       1.6805232828    -3.7339392954     1.6425494139
   41      H       3.4096427630    -1.2335047443     1.9435304802
   42      H       3.5994712211    -2.8299668823     2.8192744214
   43      H      -0.5354690139    -2.3938680175     1.6100318308
   44      H      -2.7099372389    -1.8869775619     1.0598328582
   45      H      -3.1274288832    -1.4272437087    -0.5908669408
   46      H      -2.6032949475     0.9618524819    -0.0307920992
   47      H      -2.1979406349     0.4658107502     1.6111499051
   48      H      -4.4028992048     1.3450155526     1.7028094633
   49      H      -4.5716281346    -0.4034482063     1.8611776436
   50      H      -5.1624980874    -0.5561294911    -0.5548062497
   51      H      -4.9917502139     1.1933648211    -0.7053985891
   52      H      -6.9755765173    -0.2055006983     1.1432483897
   53      H      -7.3557731104     0.3636441780    -0.4811756632
   54      H      -6.5214394819     2.1233751296     1.8708429444
   55      H      -8.1193119116     2.0193558080     1.1406131910
   56      H      -6.7759800467     2.7023707598     0.2234442216
 ----------------------------------------------------------------

    8    -858.7980650292      4.81e-06  Convergence criterion met
 Total energy in the final basis set =     -858.7980650292

                    Orbital Energies (a.u.)
 --------------------------------------------------------------

 Alpha MOs
 -- Occupied --
-10.1865 -10.1863 -10.1857 -10.1852 -10.1837 -10.1835 -10.1787 -10.1766
-10.1761 -10.1756 -10.1746 -10.1735 -10.1730 -10.1725 -10.1724 -10.1716
-10.1713 -10.1713 -10.1695 -10.1682 -10.1662 -10.1652  -0.8670  -0.8183
 -0.8045  -0.8006  -0.7827  -0.7707  -0.7597  -0.7394  -0.7130  -0.7082
 -0.6831  -0.6538  -0.6343  -0.6269  -0.6039  -0.5876  -0.5725  -0.5636
 -0.5611  -0.5586  -0.5337  -0.4925  -0.4827  -0.4707  -0.4630  -0.4571
 -0.4503  -0.4467  -0.4439  -0.4354  -0.4311  -0.4240  -0.4181  -0.4161
 -0.4072  -0.4030  -0.3962  -0.3940  -0.3788  -0.3747  -0.3660  -0.3624
 -0.3585  -0.3544  -0.3541  -0.3463  -0.3397  -0.3361  -0.3332  -0.3247
 -0.3230  -0.3197  -0.3172  -0.3119  -0.3096  -0.3019  -0.3012  -0.2856
 -0.2605  -0.2315  -0.2124

          Ground-State Mulliken Net Atomic Charges

     Atom                 Charge (a.u.)
  ----------------------------------------
      1 C                    -0.340987
      2 C                    -0.133599
      3 C                     0.120441
      4 C                    -0.263036
      5 C                     0.138620
      6 C                    -0.348973
      7 C                    -0.258450
      8 C                    -0.260555
      9 C                    -0.249034
     10 C                    -0.249961
     11 C                    -0.443333
     12 C                     0.081147
     13 C                    -0.151015
     14 C                    -0.329908
     15 C                    -0.255166
     16 C                     0.130570
     17 C                    -0.357903
     18 C                    -0.260555
     19 C                    -0.253133
     20 C                    -0.254731
     21 C                    -0.248838
     22 C                    -0.444443
     23 H                     0.140240
     24 H                     0.142923
     25 H                     0.134725
     26 H                     0.125697
     27 H                     0.142334
     28 H                     0.148302
     29 H                     0.131021
     30 H                     0.129003
     31 H                     0.135713
     32 H                     0.142327
     33 H                     0.125795
     34 H                     0.124942
     35 H                     0.131666
     36 H                     0.128323
     37 H                     0.145132
     38 H                     0.141940
     39 H                     0.140316
     40 H                     0.139063
     41 H                     0.153235
     42 H                     0.139923
     43 H                     0.117688
     44 H                     0.138232
     45 H                     0.146085
     46 H                     0.147355
     47 H                     0.134124
     48 H                     0.134097
     49 H                     0.125115
     50 H                     0.129437
     51 H                     0.128354
     52 H                     0.129671
     53 H                     0.128791
     54 H                     0.147832
     55 H                     0.142122
     56 H                     0.141320
  ----------------------------------------
  Sum of atomic charges =     0.000000

                    Cartesian Multipole Moments
 -----------------------------------------------------------------
    Charge (ESU x 10^10)
                 0.0000
    Dipole Moment (Debye)
         X      -0.2392      Y      -0.0283      Z       0.0877
       Tot       0.2563
    Quadrupole Moments (Debye-Ang)
        XX    -133.6058     XY       0.4565     YY    -137.8589
        XZ       0.5691     YZ      -3.8338     ZZ    -137.0681

 Total job time:  122.23s(wall), 121.89s(cpu)
        *  Thank you very much for using Q-Chem.  Have a nice day.  *
