 Q-Chem 5.2, Q-Chem, Inc., Pleasanton, CA (2019)
 Q-Chem 5.2.1 for Intel X86 EM64T Linux

User input:
--------------------------------------------------------------
$molecule
0 1
C         3.68971187700000    1.03756671740000    0.04298319230000
C         2.87170715540000   -0.00863343700000    0.00372028980000
C         1.41804059240000    0.01929089730000   -0.00295848350000
C         0.67336012530000    1.19688106110000   -0.00342990020000
C        -0.70967630880000    1.19520528910000   -0.01120293460000
O        -1.41394632240000    2.36509106860000   -0.01123317490000
C        -1.41807330690000   -0.01946848620000   -0.01598587760000
C        -2.87180625120000    0.00779513060000   -0.02412947600000
C        -3.68874759450000   -1.03581665070000    0.06813319410000
C        -0.67354930420000   -1.19705203380000   -0.01868849240000
C         0.70954344770000   -1.19538759070000   -0.01286619820000
O         1.41345890200000   -2.36548655780000   -0.01711305120000
H         4.75809863210000    0.90761166680000    0.04505072570000
H         3.34299957800000    2.05644773270000    0.07638357220000
H         3.28974037550000   -1.00528419700000   -0.02412716380000
H         1.19183060650000    2.14547225200000    0.00009842680000
H        -0.79839260580000    3.10735939950000   -0.00829796170000
H        -3.29025566830000    1.00124196150000   -0.10683559710000
H        -3.34038868930000   -2.04996553160000    0.16636593790000
H        -4.75731527020000   -0.90820418990000    0.05350441690000
H        -1.19230310550000   -2.14545069150000   -0.03131463020000
H         0.79764070990000   -3.10748950400000   -0.02563721310000
$end

$rem
BASIS = 6-31G*
GUI = 2
METHOD = B3LYP
PRINT_ORBITALS false
MOLDEN_FORMAT false
--------------------------------------------------------------

             Standard Nuclear Orientation (Angstroms)
    I     Atom           X                Y                Z
 ----------------------------------------------------------------
    1      C       3.7209033354    -0.9193771166    -0.0427550096
    2      C       2.8699620735     0.1001950126    -0.0030095034
    3      C       1.4179251522     0.0259366089     0.0037224770
    4      C       0.7111668805    -1.1747967334     0.0037252723
    5      C      -0.6712194556    -1.2172187334     0.0115609679
    6      O      -1.3378334714    -2.4089630655     0.0111240610
    7      C      -1.4179819555    -0.0257495154     0.0168934243
    8      C      -2.8701062036    -0.0993502758     0.0250905142
    9      C      -3.7199097816     0.9177245483    -0.0666906911
   10      C      -0.7113796724     1.1749708780     0.0200646643
   11      C       0.6710627055     1.2174051683     0.0141797111
   12      O       1.3373157951     2.4093494595     0.0188938176
   13      H       4.7846036607    -0.7554252253    -0.0448150003
   14      H       3.4068490250    -1.9487797011    -0.0765741795
   15      H       3.2560094636     1.1096548381     0.0252440701
   16      H       1.2596163143    -2.1063743769    -0.0002306370
   17      H      -0.6989280491    -3.1312278208     0.0078448670
   18      H      -3.2566652742    -1.1056680147     0.1073918897
   19      H      -3.4040665155     1.9425057964    -0.1645067237
   20      H      -4.7838648883     0.7561029538    -0.0520684510
   21      H      -1.2601056131     2.1063431902     0.0331183143
   22      H       0.6981548187     3.1313381598     0.0277618585
 ----------------------------------------------------------------

    9    -537.4752554105      1.59e-06  Convergence criterion met
 Total energy in the final basis set =     -537.4752554105

                    Orbital Energies (a.u.)
 --------------------------------------------------------------

 Alpha MOs
 -- Occupied --
-19.1784 -19.1784 -10.2447 -10.2446 -10.1949 -10.1948 -10.1877 -10.1876
-10.1842 -10.1841 -10.1758 -10.1757  -1.0627  -1.0616  -0.8602  -0.8068
 -0.7633  -0.7371  -0.7162  -0.6576  -0.6165  -0.5779  -0.5609  -0.5587
 -0.5249  -0.4875  -0.4548  -0.4508  -0.4395  -0.4368  -0.4222  -0.4068
 -0.3946  -0.3916  -0.3716  -0.3579  -0.3524  -0.3285  -0.3226  -0.3153
 -0.2588  -0.2252  -0.1935

          Ground-State Mulliken Net Atomic Charges

     Atom                 Charge (a.u.)
  ----------------------------------------
      1 C                    -0.353815
      2 C                    -0.105466
      3 C                     0.138819
      4 C                    -0.281148
      5 C                     0.297113
      6 O                    -0.654331
      7 C                     0.138305
      8 C                    -0.105362
      9 C                    -0.353518
     10 C                    -0.281031
     11 C                     0.296839
     12 O                    -0.654406
     13 H                     0.143916
     14 H                     0.134112
     15 H                     0.155443
     16 H                     0.114429
     17 H                     0.411063
     18 H                     0.155297
     19 H                     0.134181
     20 H                     0.143903
     21 H                     0.114575
     22 H                     0.411081
  ----------------------------------------
  Sum of atomic charges =     0.000000

                    Cartesian Multipole Moments
 -----------------------------------------------------------------
    Charge (ESU x 10^10)
                 0.0000
    Dipole Moment (Debye)
         X      -0.0047      Y       0.0005      Z       0.0249
       Tot       0.0253
    Quadrupole Moments (Debye-Ang)
        XX     -70.5526     XY      -5.5014     YY     -54.2886
        XZ      -0.0629     YZ      -0.0471     ZZ     -74.2757

 Total job time:  26.73s(wall), 26.63s(cpu)
        *  Thank you very much for using Q-Chem.  Have a nice day.  *
