 Q-Chem 5.2, Q-Chem, Inc., Pleasanton, CA (2019)
 Q-Chem 5.2.1 for Intel X86 EM64T Linux

User input:
--------------------------------------------------------------
$molecule
0 1
C        -3.94381009480000   -0.05554111360000    0.01489513180000
C        -2.84390090860000    0.69011648910000    0.02430256590000
C        -1.45957213360000    0.23982867770000    0.00865258300000
C        -0.45044994810000    1.20983812250000    0.00134668340000
C         0.89621715830000    0.88925637340000   -0.01532099980000
O         1.89557528960000    1.81529838180000   -0.02131039250000
C         1.56050546220000    3.18083552550000   -0.02366647490000
C         1.29773953790000   -0.46582300670000   -0.02148287950000
C         2.71527878540000   -0.79223495550000   -0.04228378300000
C         3.24855417720000   -2.00211391030000    0.08795597670000
C         0.29970121210000   -1.43369164460000   -0.01592991330000
C        -1.03464896860000   -1.08868999230000   -0.00111471320000
F        -1.92717989010000   -2.10664273430000    0.00197982330000
H        -4.91748101050000    0.40496190990000    0.02810961210000
H        -3.92971468320000   -1.12951092260000   -0.00627928080000
H        -2.94849395900000    1.76889843260000    0.04451983360000
H        -0.75918611470000    2.24368304510000    0.00819930760000
H         0.98299399800000    3.45339825320000   -0.91293745900000
H         2.50997365670000    3.71412719920000   -0.03578830740000
H         1.00214249200000    3.46089958930000    0.87538838990000
H         3.36376387450000    0.06315382730000   -0.16824032830000
H         2.65933925110000   -2.89112622910000    0.23333433270000
H         4.31489787830000   -2.14503744000000    0.05873926660000
H         0.55414285520000   -2.48080253760000   -0.03089019550000
$end

$rem
BASIS = 6-31G*
GUI = 2
METHOD = B3LYP
PRINT_ORBITALS false
MOLDEN_FORMAT false
--------------------------------------------------------------

             Standard Nuclear Orientation (Angstroms)
    I     Atom           X                Y                Z
 ----------------------------------------------------------------
    1      C       3.9512444097     0.3882883006    -0.0089546890
    2      C       2.7679618584     0.9928039227    -0.0261954685
    3      C       1.4495325924     0.3757223772    -0.0081724453
    4      C       0.3287021481     1.2141927941    -0.0105723225
    5      C      -0.9683149397     0.7304702062     0.0073691627
    6      O      -2.0740422455     1.5264993930     0.0040513566
    7      C      -1.9095603884     2.9228619898    -0.0052356196
    8      C      -1.2000499723    -0.6636195189     0.0250051890
    9      C      -2.5666921591    -1.1618143960     0.0470495449
   10      C      -2.9467424841    -2.4292006976    -0.0731412894
   11      C      -0.0904864593    -1.5013144886     0.0291263204
   12      C       1.1912982436    -0.9948584472     0.0128079683
   13      F       2.2023140761    -1.8952184828     0.0197072112
   14      H       4.8608754228     0.9649886595    -0.0251047735
   15      H       4.0693657242    -0.6790298846     0.0216628510
   16      H       2.7390558835     2.0760431795    -0.0557941666
   17      H       0.5078872276     2.2780769652    -0.0261761932
   18      H      -1.3719589059     3.2720641872     0.8822638375
   19      H      -2.9174610474     3.3353337774     0.0010957577
   20      H      -1.3879043720     3.2617719212    -0.9060795546
   21      H      -3.3157867968    -0.3916853359     0.1647202144
   22      H      -2.2522866506    -3.2401577945    -0.2100050204
   23      H      -3.9874568994    -2.7020151446    -0.0438936657
   24      H      -0.2141754035    -2.5716115827     0.0530168529
 ----------------------------------------------------------------

    9    -600.8004219316      1.87e-06  Convergence criterion met
 Total energy in the final basis set =     -600.8004219316

                    Orbital Energies (a.u.)
 --------------------------------------------------------------

 Alpha MOs
 -- Occupied --
-24.7024 -19.1837 -10.2640 -10.2500 -10.2453 -10.2043 -10.1991 -10.1930
-10.1928 -10.1911 -10.1859 -10.1777 -10.1774  -1.2129  -1.0746  -0.8705
 -0.8123  -0.7683  -0.7585  -0.7295  -0.6967  -0.6434  -0.6165  -0.5766
 -0.5680  -0.5289  -0.5231  -0.5026  -0.4776  -0.4689  -0.4559  -0.4543
 -0.4417  -0.4356  -0.4261  -0.4076  -0.3915  -0.3859  -0.3730  -0.3611
 -0.3440  -0.3327  -0.3241  -0.3136  -0.2657  -0.2347  -0.2032

          Ground-State Mulliken Net Atomic Charges

     Atom                 Charge (a.u.)
  ----------------------------------------
      1 C                    -0.357677
      2 C                    -0.111987
      3 C                     0.130805
      4 C                    -0.296198
      5 C                     0.330821
      6 O                    -0.512456
      7 C                    -0.214482
      8 C                     0.122274
      9 C                    -0.102789
     10 C                    -0.349241
     11 C                    -0.283724
     12 C                     0.319768
     13 F                    -0.298169
     14 H                     0.139227
     15 H                     0.163639
     16 H                     0.125840
     17 H                     0.136289
     18 H                     0.153106
     19 H                     0.171333
     20 H                     0.153285
     21 H                     0.152037
     22 H                     0.141470
     23 H                     0.144644
     24 H                     0.142186
  ----------------------------------------
  Sum of atomic charges =     0.000000

                    Cartesian Multipole Moments
 -----------------------------------------------------------------
    Charge (ESU x 10^10)
                 0.0000
    Dipole Moment (Debye)
         X      -0.7234      Y       2.2022      Z       0.0005
       Tot       2.3180
    Quadrupole Moments (Debye-Ang)
        XX     -73.0282     XY       0.3709     YY     -64.2952
        XZ      -0.2033     YZ       0.1103     ZZ     -78.7567

 Total job time:  32.36s(wall), 32.23s(cpu)
        *  Thank you very much for using Q-Chem.  Have a nice day.  *
