 Q-Chem 5.2, Q-Chem, Inc., Pleasanton, CA (2019)
 Q-Chem 5.2.1 for Intel X86 EM64T Linux

User input:
--------------------------------------------------------------
$molecule
0 1
F         7.09131014420000   -2.96449320820000    0.24006270790000
C         6.10758933790000   -2.07240175650000    0.37079248260000
F         6.54303873240000   -1.06143813200000    1.11663222560000
C         4.91200269320000   -2.22847584350000   -0.18020190800000
C         3.76358586770000   -1.34468132290000   -0.11821711720000
C         2.59978332970000   -1.72097955030000   -0.79608608290000
C         1.47407537700000   -0.92976373060000   -0.78126754480000
C         1.46674339490000    0.27842035880000   -0.07864323770000
N         0.33243369490000    1.08337382130000   -0.05847409680000
C        -0.94503776810000    0.50816239630000   -0.08438548720000
C        -1.21231469390000   -0.66356427960000    0.62288533260000
C        -2.47350214330000   -1.22089438680000    0.59854392140000
C        -3.50692676550000   -0.63123088400000   -0.12749646090000
C        -4.84922984340000   -1.22845992400000   -0.15022863970000
C        -5.41062788420000   -1.76037337720000    1.00872756500000
C        -6.67445320050000   -2.31973235880000    0.98678520630000
C        -7.39736121390000   -2.36239272760000   -0.19361875430000
C        -6.84856299200000   -1.83896813110000   -1.35233153900000
C        -5.58699749200000   -1.27448830510000   -1.33126811140000
C        -3.23307263220000    0.54090928670000   -0.83019960780000
C        -1.97461047700000    1.10463012310000   -0.81136956310000
C         0.45564396610000    2.47969607510000   -0.01250765330000
C         1.45425666840000    3.12626958630000   -0.73938125830000
C         1.56838111480000    4.50209155430000   -0.69086998550000
C         0.68802843530000    5.25278005080000    0.07101171530000
C        -0.30966222920000    4.61492561550000    0.78974813460000
C        -0.42670450250000    3.23889763270000    0.75456031480000
C         2.62635393330000    0.65869698470000    0.60275571400000
C         3.75124336360000   -0.13500209620000    0.58217126540000
H         4.78858386760000   -3.13885594210000   -0.74935567680000
H         2.58645836190000   -2.64755101250000   -1.35135828230000
H         0.59066151580000   -1.23590892470000   -1.32168527160000
H        -0.42376538620000   -1.13101539140000    1.19451038850000
H        -2.65832423090000   -2.13594917400000    1.14170269830000
H        -4.85917319920000   -1.71488395510000    1.93672423620000
H        -7.09898411040000   -2.72259497190000    1.89500637860000
H        -8.38390005080000   -2.80149784200000   -0.21043533300000
H        -7.40604214940000   -1.87299295800000   -2.27724500540000
H        -5.15795826300000   -0.88329666850000   -2.24246181010000
H        -4.02145643300000    1.02455969560000   -1.38786447580000
H        -1.77894425230000    2.01354070080000   -1.36142245290000
H         2.13458654010000    2.54341517060000   -1.34295374690000
H         2.34521081420000    4.99158659690000   -1.25943181490000
H         0.77850613270000    6.32779772500000    0.10371649710000
H        -0.99787761370000    5.19210138640000    1.38943452610000
H        -1.20006540400000    2.74212968520000    1.32196892140000
H         2.63358694090000    1.58422467080000    1.15901504180000
H         4.62378597460000    0.18783751060000    1.12568583400000
$end

$rem
BASIS = 6-31G*
GUI = 2
METHOD = B3LYP
PRINT_ORBITALS false
MOLDEN_FORMAT false
--------------------------------------------------------------

             Standard Nuclear Orientation (Angstroms)
    I     Atom           X                Y                Z
 ----------------------------------------------------------------
    1      F       7.0302958147    -3.3419105162    -0.0774215102
    2      C       6.0979760247    -2.4045603247     0.1036267833
    3      F       6.6123230303    -1.4266581651     0.8432855369
    4      C       4.8751481948    -2.4941235126    -0.4004088284
    5      C       3.7753188742    -1.5560250441    -0.2814853112
    6      C       2.5682487266    -1.8653167121    -0.9162004920
    7      C       1.4846176184    -1.0201329323    -0.8464261629
    8      C       1.5651328463     0.1770488690    -0.1296859720
    9      N       0.4738110916     1.0362996883    -0.0540538113
   10      C      -0.8306153707     0.5248428774    -0.0351737293
   11      C      -1.1272794525    -0.6421087914     0.6682653910
   12      C      -2.4145061830    -1.1365279606     0.6882695069
   13      C      -3.4455070825    -0.4868362861     0.0117031715
   14      C      -4.8155987557    -1.0171471226     0.0361174055
   15      C      -5.3561091277    -1.5369882729     1.2103801030
   16      C      -6.6459734846    -2.0333377505     1.2328635256
   17      C      -7.4165011474    -2.0240436767     0.0822245058
   18      C      -6.8889761315    -1.5120658576    -1.0913870928
   19      C      -5.6011482128    -1.0104791282    -1.1145960850
   20      C      -3.1420768553     0.6801421531    -0.6874332948
   21      C      -1.8574724856     1.1811541852    -0.7127572970
   22      C       0.6678008371     2.4241236606     0.0035840393
   23      C       1.6675164313     3.0310144141    -0.7552849984
   24      C       1.8515240132     4.3987748539    -0.6949823481
   25      C       1.0404684765     5.1810420589     0.1107872972
   26      C       0.0417813909     4.5829272167     0.8615933466
   27      C      -0.1446182039     3.2149184593     0.8147178020
   28      C       2.7683570866     0.4904701436     0.5087730922
   29      C       3.8508188414    -0.3570731833     0.4332413818
   30      H       4.6842158443    -3.3893365735    -0.9749508687
   31      H       2.4869375759    -2.7822923803    -1.4815177176
   32      H       0.5663150079    -1.2750280252    -1.3543090791
   33      H      -0.3407461667    -1.1555868977     1.2019145096
   34      H      -2.6226916830    -2.0488981417     1.2274776067
   35      H      -4.7665909706    -1.5315319192     2.1158015240
   36      H      -7.0534743194    -2.4275137639     2.1526237207
   37      H      -8.4234760510    -2.4139648607     0.1000567619
   38      H      -7.4838157365    -1.5058200546    -1.9933474325
   39      H      -5.1898448424    -0.6281385765    -2.0376479541
   40      H      -3.9270866963     1.2095958460    -1.2069476612
   41      H      -1.6390435780     2.0869524303    -1.2593652396
   42      H       2.2935700797     2.4239659372    -1.3927932174
   43      H       2.6284194450     4.8574613366    -1.2885920945
   44      H       1.1853407887     6.2497692141     0.1526573026
   45      H      -0.5925778770     5.1847452797     1.4954698269
   46      H      -0.9184581700     2.7488144931     1.4069481659
   47      H       2.8435761416     1.4066883797     1.0753103739
   48      H       4.7592227491    -0.0850154269     0.9448574720
 ----------------------------------------------------------------

    9   -1256.6185834514      4.44e-06  Convergence criterion met
 Total energy in the final basis set =    -1256.6185834514

                    Orbital Energies (a.u.)
 --------------------------------------------------------------

 Alpha MOs
 -- Occupied --
-24.7398 -24.7290 -14.3689 -10.3505 -10.2286 -10.2279 -10.2277 -10.1995
-10.1991 -10.1928 -10.1914 -10.1900 -10.1885 -10.1884 -10.1883 -10.1882
-10.1872 -10.1867 -10.1865 -10.1858 -10.1857 -10.1855 -10.1855 -10.1855
-10.1854 -10.1841 -10.1839 -10.1838 -10.1835  -1.2797  -1.2191  -0.9823
 -0.8720  -0.8657  -0.8555  -0.8432  -0.8032  -0.7797  -0.7596  -0.7538
 -0.7499  -0.7472  -0.7432  -0.7324  -0.7040  -0.6496  -0.6385  -0.6244
 -0.6148  -0.6124  -0.6063  -0.5936  -0.5887  -0.5720  -0.5669  -0.5421
 -0.5401  -0.5257  -0.5216  -0.5137  -0.4913  -0.4797  -0.4752  -0.4692
 -0.4568  -0.4521  -0.4454  -0.4430  -0.4423  -0.4362  -0.4338  -0.4321
 -0.4275  -0.4254  -0.4248  -0.4189  -0.4181  -0.4070  -0.3869  -0.3846
 -0.3788  -0.3739  -0.3702  -0.3612  -0.3609  -0.3552  -0.3471  -0.3434
 -0.3377  -0.3348  -0.3245  -0.2914  -0.2714  -0.2616  -0.2525  -0.2510
 -0.2505  -0.2403  -0.2254  -0.1772

          Ground-State Mulliken Net Atomic Charges

     Atom                 Charge (a.u.)
  ----------------------------------------
      1 F                    -0.252063
      2 C                     0.536772
      3 F                    -0.238000
      4 C                    -0.298724
      5 C                     0.198659
      6 C                    -0.205904
      7 C                    -0.176517
      8 C                     0.298337
      9 N                    -0.653025
     10 C                     0.284904
     11 C                    -0.173657
     12 C                    -0.185060
     13 C                     0.091643
     14 C                     0.087241
     15 C                    -0.171566
     16 C                    -0.132977
     17 C                    -0.125172
     18 C                    -0.133018
     19 C                    -0.171514
     20 C                    -0.184651
     21 C                    -0.172735
     22 C                     0.277081
     23 C                    -0.165595
     24 C                    -0.138292
     25 C                    -0.127282
     26 C                    -0.138068
     27 C                    -0.165012
     28 C                    -0.176466
     29 C                    -0.205475
     30 H                     0.157055
     31 H                     0.129238
     32 H                     0.149165
     33 H                     0.148380
     34 H                     0.134605
     35 H                     0.129540
     36 H                     0.128003
     37 H                     0.126798
     38 H                     0.127956
     39 H                     0.129489
     40 H                     0.134610
     41 H                     0.148208
     42 H                     0.147321
     43 H                     0.131317
     44 H                     0.126147
     45 H                     0.131288
     46 H                     0.146910
     47 H                     0.150041
     48 H                     0.140063
  ----------------------------------------
  Sum of atomic charges =     0.000000

                    Cartesian Multipole Moments
 -----------------------------------------------------------------
    Charge (ESU x 10^10)
                 0.0000
    Dipole Moment (Debye)
         X      -1.4538      Y       0.5239      Z      -0.3512
       Tot       1.5847
    Quadrupole Moments (Debye-Ang)
        XX    -166.4523     XY       6.1933     YY    -155.5535
        XZ      -1.9474     YZ      -0.1159     ZZ    -159.4896

 Total job time:  162.14s(wall), 161.73s(cpu)
        *  Thank you very much for using Q-Chem.  Have a nice day.  *
