 Q-Chem 5.2, Q-Chem, Inc., Pleasanton, CA (2019)
 Q-Chem 5.2.1 for Intel X86 EM64T Linux

User input:
--------------------------------------------------------------
$molecule
0 1
C         3.53533887040000   -1.51898653360000    0.07155351700000
C         3.13728544450000   -0.25207900960000    0.07655741450000
C         1.76206877260000    0.22754178710000    0.06399281420000
C         1.51738802690000    1.59729386990000   -0.04193272120000
C         0.22911305060000    2.08612823580000   -0.05596210950000
C        -0.87062953960000    1.23399295730000    0.03591460980000
C        -2.22800107870000    1.77786963530000    0.04223318930000
C        -2.61116773670000    2.85408857650000   -0.63166935590000
C        -0.63366257970000   -0.14440181340000    0.14290214590000
C        -1.80701149150000   -1.09904131460000    0.22780080140000
C        -1.43779370430000   -2.47951174050000    0.04797346090000
N        -1.16235308150000   -3.57976324880000   -0.09561119940000
C         0.66211274170000   -0.62570595150000    0.15768196300000
H         4.58098634700000   -1.77479491060000    0.07846468760000
H         2.84901454790000   -2.34810648190000    0.05525664500000
H         3.88420708690000    0.53293429560000    0.08122321090000
H         2.35010428450000    2.28278232420000   -0.11050266090000
H         0.06160449090000    3.15107136670000   -0.11604946930000
H        -2.95344788600000    1.24938050300000    0.64819532760000
H        -1.93703899350000    3.39818898780000   -1.27165380070000
H        -3.62203363150000    3.22123256360000   -0.58269061590000
H        -2.54733990200000   -0.84961985030000   -0.53991817150000
H        -2.29049612880000   -1.00816323980000    1.20842017060000
H         0.82141978710000   -1.68943632570000    0.24480099180000
$end

$rem
BASIS = 6-31G*
GUI = 2
METHOD = B3LYP
PRINT_ORBITALS false
MOLDEN_FORMAT false
--------------------------------------------------------------

             Standard Nuclear Orientation (Angstroms)
    I     Atom           X                Y                Z
 ----------------------------------------------------------------
    1      C       3.8092550383     0.5899766689    -0.1027170043
    2      C       2.7945529995     1.4420780163    -0.0142336204
    3      C       1.3782155849     1.1058697664     0.0344203974
    4      C       0.4317901799     2.1311459480     0.0144865341
    5      C      -0.9163326758     1.8495592644     0.0601152647
    6      C      -1.3807675405     0.5366971511     0.1286933740
    7      C      -2.8155685672     0.2635113148     0.1995084373
    8      C      -3.7505548393     0.9876324241    -0.4010395022
    9      C      -0.4361480850    -0.5000469816     0.1493695534
   10      C      -0.9079530356    -1.9385863713     0.2067850620
   11      C       0.1343394289    -2.8955014438    -0.0620981955
   12      N       0.9491842615    -3.6683036304    -0.2762060001
   13      C       0.9142915149    -0.2081093696     0.1047476133
   14      H       4.8276244868     0.9373672882    -0.1360000234
   15      H       3.6751092643    -0.4770026673    -0.1507436628
   16      H       3.0028020299     2.5049718454     0.0181492187
   17      H       0.7619103307     3.1590919595    -0.0340964533
   18      H      -1.6318586115     2.6581122818     0.0662905362
   19      H      -3.1117570062    -0.5939290097     0.7909747886
   20      H      -3.5077282644     1.8318148081    -1.0243101228
   21      H      -4.7964646110     0.7506816144    -0.3063265419
   22      H      -1.7050795058    -2.0994568193    -0.5269722092
   23      H      -1.3132249717    -2.1578496568     1.2024299966
   24      H       1.6236570103    -1.0210345567     0.1258189904
 ----------------------------------------------------------------

    9    -518.5950500284      4.36e-06  Convergence criterion met
 Total energy in the final basis set =     -518.5950500284

                    Orbital Energies (a.u.)
 --------------------------------------------------------------

 Alpha MOs
 -- Occupied --
-14.3308 -10.2412 -10.2259 -10.2148 -10.2059 -10.2030 -10.2022 -10.1955
-10.1938 -10.1937 -10.1934 -10.1930 -10.1833  -0.9141  -0.8822  -0.8233
 -0.8054  -0.7740  -0.7339  -0.7213  -0.6494  -0.6113  -0.5849  -0.5633
 -0.5276  -0.5120  -0.4837  -0.4775  -0.4652  -0.4520  -0.4424  -0.4356
 -0.4143  -0.4018  -0.3834  -0.3651  -0.3610  -0.3517  -0.3495  -0.3333
 -0.3282  -0.3187  -0.2780  -0.2596  -0.2209

          Ground-State Mulliken Net Atomic Charges

     Atom                 Charge (a.u.)
  ----------------------------------------
      1 C                    -0.351421
      2 C                    -0.118350
      3 C                     0.183282
      4 C                    -0.195442
      5 C                    -0.187272
      6 C                     0.112257
      7 C                    -0.134959
      8 C                    -0.335188
      9 C                     0.100584
     10 C                    -0.415454
     11 C                     0.367435
     12 N                    -0.482830
     13 C                    -0.251720
     14 H                     0.147667
     15 H                     0.157459
     16 H                     0.128435
     17 H                     0.130992
     18 H                     0.134248
     19 H                     0.134867
     20 H                     0.150608
     21 H                     0.148469
     22 H                     0.211647
     23 H                     0.209009
     24 H                     0.155679
  ----------------------------------------
  Sum of atomic charges =     0.000000

                    Cartesian Multipole Moments
 -----------------------------------------------------------------
    Charge (ESU x 10^10)
                 0.0000
    Dipole Moment (Debye)
         X      -2.4511      Y       2.7678      Z       0.6506
       Tot       3.7539
    Quadrupole Moments (Debye-Ang)
        XX     -68.0879     XY       8.2711     YY     -83.5054
        XZ       0.3382     YZ      -3.6380     ZZ     -78.2482

 Total job time:  32.98s(wall), 32.87s(cpu)
        *  Thank you very much for using Q-Chem.  Have a nice day.  *
