 Q-Chem 5.2, Q-Chem, Inc., Pleasanton, CA (2019)
 Q-Chem 5.2.1 for Intel X86 EM64T Linux

User input:
--------------------------------------------------------------
$molecule
0 1
C         3.83884074110000    1.36686162840000    0.18105016490000
C         3.30491140450000    0.15440968230000    0.09408964330000
C         1.88525771550000   -0.16871913140000    0.04868599590000
C         0.86319800660000    0.77268789740000    0.18402944540000
C        -0.46275460280000    0.36638178730000    0.09510179790000
C        -1.55071556840000    1.38953589360000    0.18516845760000
O        -2.53161999830000    1.39054587550000   -0.50282864410000
O        -1.35496881350000    2.35134026510000    1.10838187920000
C        -0.75208216300000   -0.99086277350000   -0.12993268550000
C        -2.11432581270000   -1.49039838190000   -0.23404254280000
C        -2.45997688480000   -2.59170373450000   -0.89065159050000
C         0.35429243860000   -1.84928086410000   -0.19815853320000
N         1.60450890240000   -1.46338804230000   -0.11901878870000
H         4.90592567810000    1.50432984660000    0.20347068210000
H         3.25054027950000    2.26814132420000    0.22560899690000
H         3.93926624170000   -0.71933935100000    0.03814510390000
H         1.10856784980000    1.81676869190000    0.31663172540000
H        -0.54185465460000    2.21995008380000    1.61499984500000
H        -2.87806674990000   -0.88790152450000    0.23687782070000
H        -1.74597277860000   -3.19578503910000   -1.42492309510000
H        -3.48570370510000   -2.91311757020000   -0.93714950470000
H         0.20719247190000   -2.91494139370000   -0.31156071170000
$end

$rem
BASIS = 6-31G*
GUI = 2
METHOD = B3LYP
PRINT_ORBITALS false
MOLDEN_FORMAT false
--------------------------------------------------------------

             Standard Nuclear Orientation (Angstroms)
    I     Atom           X                Y                Z
 ----------------------------------------------------------------
    1      C       4.0217024629    -0.4816238600     0.2800299527
    2      C       3.2352977634     0.5665947063     0.0667510831
    3      C       1.7809413310     0.5595039047    -0.0150254804
    4      C       0.9996344978    -0.5965651729     0.0322504312
    5      C      -0.3851291166    -0.4939316244    -0.0228784267
    6      C      -1.2170080422    -1.7328818822     0.0848021325
    7      O      -2.2310172783    -1.8091490915     0.7184290847
    8      O      -0.7405414587    -2.8005290923    -0.5851355455
    9      C      -0.9765192825     0.7773065129    -0.1261984318
   10      C      -2.4178551204     0.9634592041    -0.1892906297
   11      C      -3.0468308381     2.0718981847     0.1838529857
   12      C      -0.0895883097     1.8593313443    -0.2166244096
   13      N       1.2162682105     1.7609221944    -0.1594233333
   14      H       5.0913062749    -0.3736824760     0.3286796830
   15      H       3.6459561046    -1.4811192100     0.4221979251
   16      H       3.6607526861     1.5529055742    -0.0563432090
   17      H       1.4732318483    -1.5605513827     0.1519607775
   18      H       0.0665510538    -2.5996165841    -1.0784058758
   19      H      -2.9911346350     0.1157233145    -0.5368005299
   20      H      -2.5277919721     2.9234576952     0.5908016095
   21      H      -4.1176334993     2.1532319312     0.1178916174
   22      H      -0.4705175128     2.8620733427    -0.3563822197
 ----------------------------------------------------------------

    9    -591.6390700784      6.94e-06  Convergence criterion met
 Total energy in the final basis set =     -591.6390700784

                    Orbital Energies (a.u.)
 --------------------------------------------------------------

 Alpha MOs
 -- Occupied --
-19.2067 -19.1455 -14.3414 -10.3319 -10.2435 -10.2343 -10.2335 -10.2232
-10.2210 -10.2017 -10.2004 -10.1986 -10.1916  -1.1163  -1.0342  -0.9676
 -0.8470  -0.8217  -0.7877  -0.7396  -0.6782  -0.6723  -0.6309  -0.6003
 -0.5906  -0.5409  -0.5271  -0.4852  -0.4749  -0.4681  -0.4643  -0.4577
 -0.4432  -0.4290  -0.4221  -0.4006  -0.3889  -0.3730  -0.3714  -0.3405
 -0.3283  -0.3063  -0.2858  -0.2851  -0.2641  -0.2342

          Ground-State Mulliken Net Atomic Charges

     Atom                 Charge (a.u.)
  ----------------------------------------
      1 C                    -0.347618
      2 C                    -0.087678
      3 C                     0.300334
      4 C                    -0.246197
      5 C                     0.025089
      6 C                     0.546697
      7 O                    -0.428938
      8 O                    -0.562369
      9 C                     0.101132
     10 C                    -0.103993
     11 C                    -0.341362
     12 C                    -0.009011
     13 N                    -0.473663
     14 H                     0.157045
     15 H                     0.144180
     16 H                     0.152571
     17 H                     0.142263
     18 H                     0.417202
     19 H                     0.159437
     20 H                     0.150103
     21 H                     0.155068
     22 H                     0.149708
  ----------------------------------------
  Sum of atomic charges =     0.000000

                    Cartesian Multipole Moments
 -----------------------------------------------------------------
    Charge (ESU x 10^10)
                 0.0000
    Dipole Moment (Debye)
         X       2.3009      Y       0.4338      Z      -1.5566
       Tot       2.8117
    Quadrupole Moments (Debye-Ang)
        XX     -71.9385     XY     -12.9740     YY     -76.6652
        XZ       2.9424     YZ       3.8626     ZZ     -75.9800

 Total job time:  30.39s(wall), 30.20s(cpu)
        *  Thank you very much for using Q-Chem.  Have a nice day.  *
