 Q-Chem 5.2, Q-Chem, Inc., Pleasanton, CA (2019)
 Q-Chem 5.2.1 for Intel X86 EM64T Linux

User input:
--------------------------------------------------------------
$molecule
0 1
C         3.54993633990000   -2.74147840750000    0.02832014830000
C         3.40257886170000   -1.42303202280000   -0.00922179480000
C         2.14501656850000   -0.68257066010000   -0.00794389290000
C         0.89822136680000   -1.30651949130000   -0.01072003960000
C        -0.27638422300000   -0.56209032200000   -0.00815504880000
C        -1.53848196110000   -1.28726722170000   -0.01150857330000
C        -2.77283503710000   -0.80756333420000    0.00006967760000
F        -3.16198749690000    0.46345936510000    0.01779971420000
F        -3.85572612600000   -1.58468732430000   -0.00426108700000
C        -0.21175138220000    0.83369920970000   -0.00313496400000
C         1.02302725070000    1.46766100570000   -0.00192017160000
O         1.19956244420000    2.81572808710000    0.00161804190000
C         0.06311990120000    3.64704650350000    0.00422059710000
C         2.19124743370000    0.70679373080000   -0.00503847670000
H         4.52661947730000   -3.19399109070000    0.02486003760000
H         2.71805032700000   -3.42349574850000    0.06535796760000
H         4.28655018710000   -0.79839967840000   -0.04134270270000
H         0.83556006030000   -2.38273839010000   -0.01686823920000
H        -1.47129589960000   -2.36568635110000   -0.02403874350000
H        -1.11927061130000    1.41068562530000   -0.00133880270000
H         0.44573487030000    4.66637046910000    0.00584715370000
H        -0.54889777100000    3.48909503510000    0.89775406140000
H        -0.55049209040000    3.49260416080000   -0.88883288620000
H         3.13609711960000    1.22792718900000   -0.00396965800000
$end

$rem
BASIS = 6-31G*
GUI = 2
METHOD = B3LYP
PRINT_ORBITALS false
MOLDEN_FORMAT false
--------------------------------------------------------------

             Standard Nuclear Orientation (Angstroms)
    I     Atom           X                Y                Z
 ----------------------------------------------------------------
    1      C       3.6406698004    -2.5091412864     0.0273086100
    2      C       3.4015340479    -1.2042086004    -0.0099643027
    3      C       2.0953028134    -0.5534359666    -0.0083752102
    4      C       0.8951565965    -1.2629849525    -0.0110992602
    5      C      -0.3285978085    -0.6024574335    -0.0082336348
    6      C      -1.5369354319    -1.4140562620    -0.0115520910
    7      C      -2.8017909432    -1.0217836377     0.0002849514
    8      F      -3.2788083796     0.2189347944     0.0183080136
    9      F      -3.8277300939    -1.8726794437    -0.0040449753
   10      C      -0.3616598574     0.7944355829    -0.0029588063
   11      C       0.8257992286     1.5131336180    -0.0017925824
   12      O       0.9077005952     2.8702408402     0.0019761141
   13      C      -0.2840558629     3.6201120206     0.0048905096
   14      C       2.0443324473     0.8357620653    -0.0052137557
   15      H       4.6465863649    -2.8922965870     0.0236299565
   16      H       2.8584822450    -3.2476301228     0.0643310177
   17      H       4.2396903794    -0.5193256382    -0.0420877326
   18      H       0.9078536269    -2.3409505880    -0.0174421310
   19      H      -1.3945556581    -2.4851418832    -0.0242950429
   20      H      -1.3072800522     1.3065937932    -0.0009300246
   21      H       0.0263937487     4.6636809564     0.0066573922
   22      H      -0.8834065030     3.4196191352     0.8984775296
   23      H      -0.8855085920     3.4233277748    -0.8881084897
   24      H       2.9504557580     1.4216473954    -0.0041752988
 ----------------------------------------------------------------

    9    -700.0387197544      4.69e-06  Convergence criterion met
 Total energy in the final basis set =     -700.0387197544

                    Orbital Energies (a.u.)
 --------------------------------------------------------------

 Alpha MOs
 -- Occupied --
-24.7456 -24.7342 -19.1786 -10.3567 -10.2469 -10.2403 -10.2073 -10.2031
-10.1966 -10.1902 -10.1841 -10.1823 -10.1818 -10.1803  -1.2858  -1.2247
 -1.0693  -0.8685  -0.8147  -0.7857  -0.7508  -0.7273  -0.7014  -0.6464
 -0.6245  -0.6047  -0.5721  -0.5675  -0.5222  -0.5194  -0.5162  -0.4917
 -0.4884  -0.4719  -0.4504  -0.4415  -0.4402  -0.4372  -0.4310  -0.4121
 -0.3983  -0.3894  -0.3822  -0.3618  -0.3506  -0.3377  -0.3290  -0.3178
 -0.2604  -0.2209  -0.2142

          Ground-State Mulliken Net Atomic Charges

     Atom                 Charge (a.u.)
  ----------------------------------------
      1 C                    -0.353183
      2 C                    -0.111435
      3 C                     0.186973
      4 C                    -0.269136
      5 C                     0.204287
      6 C                    -0.295526
      7 C                     0.540366
      8 F                    -0.236292
      9 F                    -0.249410
     10 C                    -0.280615
     11 C                     0.393842
     12 O                    -0.509563
     13 C                    -0.215028
     14 C                    -0.255034
     15 H                     0.145038
     16 H                     0.143040
     17 H                     0.129135
     18 H                     0.121585
     19 H                     0.160104
     20 H                     0.139629
     21 H                     0.169681
     22 H                     0.153469
     23 H                     0.153401
     24 H                     0.134672
  ----------------------------------------
  Sum of atomic charges =     0.000000

                    Cartesian Multipole Moments
 -----------------------------------------------------------------
    Charge (ESU x 10^10)
                 0.0000
    Dipole Moment (Debye)
         X      -0.0936      Y       0.4492      Z      -0.0064
       Tot       0.4589
    Quadrupole Moments (Debye-Ang)
        XX     -79.6956     XY      -4.7845     YY     -69.8049
        XZ      -0.0298     YZ      -0.0394     ZZ     -82.2601

 Total job time:  33.20s(wall), 33.09s(cpu)
        *  Thank you very much for using Q-Chem.  Have a nice day.  *
