 Q-Chem 5.2, Q-Chem, Inc., Pleasanton, CA (2019)
 Q-Chem 5.2.1 for Intel X86 EM64T Linux

User input:
--------------------------------------------------------------
$molecule
0 1
C        -4.71982150520000   -1.06416806510000    0.18357817650000
C        -3.74771338590000   -0.20927414210000    0.47710441530000
C        -2.34683554140000   -0.31978364200000    0.08925577270000
C        -1.81948611980000   -1.43323366110000   -0.56577093840000
C        -0.48023310660000   -1.48086663290000   -0.89306348910000
C         0.38090320840000   -0.42514791570000   -0.61022580580000
C         1.84004296290000   -0.54893186950000   -0.95931119580000
C         2.78479904770000   -0.16527858310000    0.17229894700000
O         3.85564597220000    0.33794302550000   -0.00010230610000
O         2.36343098670000   -0.49944643830000    1.40296676660000
C        -0.13377468000000    0.70651598230000    0.03724575650000
C         0.68494042780000    1.87526976190000    0.39377066110000
C         1.49273030220000    2.53120353930000   -0.42355942650000
C        -1.47883759910000    0.72684920040000    0.39062135200000
H        -5.73058156940000   -0.89475641760000    0.51250696580000
H        -4.55774587520000   -1.95776610500000   -0.39437513610000
H        -3.98442869220000    0.67659509670000    1.05389241090000
H        -2.45193944780000   -2.27229333630000   -0.80760501730000
H        -0.08842924870000   -2.36007667670000   -1.38564511160000
H         2.09890314670000    0.05112150240000   -1.83287827890000
H         2.06616090740000   -1.59054540870000   -1.21080380320000
H         1.46684030740000   -0.86671950490000    1.38922966940000
H         0.54327126590000    2.23246504180000    1.40696279530000
H         1.63166128410000    2.24714236940000   -1.45227129090000
H         2.03949469970000    3.39768917720000   -0.09523351420000
H        -1.86254687290000    1.59906046320000    0.90181239300000
$end

$rem
BASIS = 6-31G*
GUI = 2
METHOD = B3LYP
PRINT_ORBITALS false
MOLDEN_FORMAT false
--------------------------------------------------------------

             Standard Nuclear Orientation (Angstroms)
    I     Atom           X                Y                Z
 ----------------------------------------------------------------
    1      C       4.7945013768    -0.1332898175    -0.1915155396
    2      C       3.6817882975     0.5744663892    -0.3429956471
    3      C       2.3235258635     0.1305459301    -0.0546287959
    4      C       2.0090298160    -1.1752554782     0.3233966898
    5      C       0.6999813104    -1.5345503485     0.5689311132
    6      C      -0.3413718120    -0.6163998400     0.4757740617
    7      C      -1.7540993992    -1.0751784950     0.7207124415
    8      C      -2.7456626904    -0.6323536050    -0.3474653413
    9      O      -3.8929775496    -0.3810322554    -0.1234709036
   10      O      -2.2602424544    -0.6091606525    -1.5995003895
   11      C      -0.0427859377     0.7029356476     0.1083828837
   12      C      -1.0630772355     1.7531984130    -0.0306984735
   13      C      -1.9852658756     2.0584836606     0.8677285426
   14      C       1.2772675655     1.0427652823    -0.1681249383
   15      H       5.7580947525     0.2836891320    -0.4284685395
   16      H       4.7982513789    -1.1453319467     0.1753259311
   17      H       3.7527955185     1.5923564572    -0.7067821511
   18      H       2.7855094565    -1.9180897621     0.4115934413
   19      H       0.4759970241    -2.5558358028     0.8445472943
   20      H      -2.1270215414    -0.7363220538     1.6883371005
   21      H      -1.7831840651    -2.1698482789     0.7344517267
   22      H      -1.3108954420    -0.8020834314    -1.6212744793
   23      H      -0.9833417978     2.3416232893    -0.9371284736
   24      H      -2.0761072093     1.5373298661     1.8049516966
   25      H      -2.6820713712     2.8619334405     0.7050106145
   26      H       1.4947456523     2.0599159225    -0.4637757984
 ----------------------------------------------------------------

    9    -614.9112975188      4.58e-06  Convergence criterion met
 Total energy in the final basis set =     -614.9112975188

                    Orbital Energies (a.u.)
 --------------------------------------------------------------

 Alpha MOs
 -- Occupied --
-19.1866 -19.1220 -10.3113 -10.2120 -10.2099 -10.2081 -10.2071 -10.2027
-10.2002 -10.1997 -10.1994 -10.1970 -10.1904 -10.1883  -1.0971  -1.0132
 -0.8860  -0.8239  -0.7968  -0.7705  -0.7443  -0.7120  -0.6412  -0.6218
 -0.6111  -0.5986  -0.5492  -0.5250  -0.5058  -0.4964  -0.4822  -0.4622
 -0.4529  -0.4459  -0.4373  -0.4318  -0.4140  -0.4041  -0.3882  -0.3847
 -0.3762  -0.3679  -0.3546  -0.3448  -0.3134  -0.3082  -0.2901  -0.2629
 -0.2491  -0.2324

          Ground-State Mulliken Net Atomic Charges

     Atom                 Charge (a.u.)
  ----------------------------------------
      1 C                    -0.350865
      2 C                    -0.112111
      3 C                     0.184573
      4 C                    -0.177931
      5 C                    -0.194659
      6 C                     0.061622
      7 C                    -0.451961
      8 C                     0.615549
      9 O                    -0.453482
     10 O                    -0.566070
     11 C                     0.099652
     12 C                    -0.155503
     13 C                    -0.307903
     14 C                    -0.258369
     15 H                     0.149747
     16 H                     0.145423
     17 H                     0.131836
     18 H                     0.132075
     19 H                     0.133071
     20 H                     0.190878
     21 H                     0.178946
     22 H                     0.414751
     23 H                     0.147469
     24 H                     0.150900
     25 H                     0.158177
     26 H                     0.134184
  ----------------------------------------
  Sum of atomic charges =     0.000000

                    Cartesian Multipole Moments
 -----------------------------------------------------------------
    Charge (ESU x 10^10)
                 0.0000
    Dipole Moment (Debye)
         X       4.3431      Y      -0.4879      Z       0.6976
       Tot       4.4258
    Quadrupole Moments (Debye-Ang)
        XX     -95.7480     XY      -1.8757     YY     -72.7612
        XZ      -5.7519     YZ      -2.5119     ZZ     -82.7372

 Total job time:  40.71s(wall), 40.59s(cpu)
        *  Thank you very much for using Q-Chem.  Have a nice day.  *
