 Q-Chem 5.4, Q-Chem, Inc., Pleasanton, CA (2021)
 Q-Chem 5.4.2 for Intel X86 EM64T Linux

User input:
--------------------------------------------------------------
$molecule
0 1
C           -4.73053677330000       -1.02431611960000       -0.06249754840000
C           -3.83298131040000       -0.06558121730000       -0.25806067760000
C           -2.40725396620000       -0.13780524830000        0.03366191810000
C           -1.81859737750000       -1.20910828780000        0.70842694730000
C           -0.46348304480000       -1.21708924440000        0.94729181450000
C            0.36158394580000       -0.17874464690000        0.50939566800000
C            1.79281332200000       -0.30134156760000        0.79435665670000
C            2.79034625370000       -0.08259311220000       -0.04383909070000
F            2.70974060270000        0.28579907930000       -1.31685819620000
F            4.07467713240000       -0.23950258300000        0.28027800140000
C           -0.21406008130000        0.92125391590000       -0.13675191650000
C            0.58564815970000        2.11525829890000       -0.55825508060000
C           -1.58339437690000        0.91514317860000       -0.35856300890000
H           -5.76694632460000       -0.87995427530000       -0.31509447060000
H           -4.47655340030000       -1.98657688420000        0.34766517050000
H           -4.15654852920000        0.87474923660000       -0.68798690770000
H           -2.42290979230000       -2.03182018230000        1.05593937480000
H           -0.01726178020000       -2.05126904630000        1.46961447930000
H            2.06898410450000       -0.66912003280000        1.77241417810000
H            1.42335632230000        2.28651751510000        0.11451677310000
H           -0.04208438720000        3.00336620960000       -0.56895786610000
H            0.98252843130000        1.97283525420000       -1.56283200520000
H           -2.02790529510000        1.76566888890000       -0.85729562420000
$end

$rem
BASIS = 6-31G*
GUI = 2
METHOD = B3LYP
PRINT_ORBITALS false
MOLDEN_FORMAT false
$end
--------------------------------------------------------------

             Standard Nuclear Orientation (Angstroms)
    I     Atom           X                Y                Z
 ----------------------------------------------------------------
    1      C       4.6954917868    -0.4216203229     0.4329865617
    2      C       3.7042733625     0.4204423582     0.1657042471
    3      C       2.2991984480     0.0791438867    -0.0140085285
    4      C       1.8332132741    -1.2358950297    -0.0691908829
    5      C       0.4909458395    -1.4889342561    -0.2357569634
    6      C      -0.4412464482    -0.4533324264    -0.3316447431
    7      C      -1.8470087357    -0.8356946966    -0.4809155797
    8      C      -2.8792564728    -0.3356667102     0.1747760928
    9      F      -2.8629751968     0.6088115675     1.1077731045
   10      F      -4.1346447862    -0.7526859702     0.0036813917
   11      C       0.0096063602     0.8715541891    -0.3150078462
   12      C      -0.9122457994     2.0370331490    -0.5012658515
   13      C       1.3677752109     1.1054505025    -0.1569451924
   14      H       5.7070034433    -0.0740064975     0.5546381229
   15      H       4.5460233240    -1.4815023110     0.5469871706
   16      H       3.9246905940     1.4775193354     0.0776237198
   17      H       2.5226659598    -2.0614587695     0.0077035195
   18      H       0.1401149349    -2.5102367283    -0.2763680663
   19      H      -2.0643755732    -1.6556581905    -1.1506463782
   20      H      -1.7477936185     1.7796037790    -1.1487970194
   21      H      -0.3749190980     2.8750050932    -0.9394226702
   22      H      -1.3151298696     2.3613374202     0.4576315553
   23      H       1.7158187946     2.1293826324    -0.1448283026
 ----------------------------------------------------------------

    9    -624.8290401408      6.17e-06  Convergence criterion met
 Total energy in the final basis set =     -624.8290401408

                    Orbital Energies (a.u.)
 --------------------------------------------------------------

 Alpha MOs
 -- Occupied --
-24.7408 -24.7328 -10.3554 -10.2013 -10.2009 -10.1964 -10.1939 -10.1898
-10.1884 -10.1852 -10.1838 -10.1796 -10.1776  -1.2827  -1.2221  -0.8720
 -0.8170  -0.7815  -0.7681  -0.7254  -0.6889  -0.6439  -0.6110  -0.6058
 -0.5709  -0.5509  -0.5299  -0.5175  -0.4880  -0.4827  -0.4536  -0.4408
 -0.4378  -0.4337  -0.4208  -0.4199  -0.4100  -0.4087  -0.3882  -0.3691
 -0.3658  -0.3430  -0.3381  -0.3068  -0.2645  -0.2463  -0.2137

          Ground-State Mulliken Net Atomic Charges

     Atom                 Charge (a.u.)
  ----------------------------------------
      1 C                    -0.353345
      2 C                    -0.113495
      3 C                     0.191856
      4 C                    -0.188604
      5 C                    -0.177258
      6 C                     0.116344
      7 C                    -0.344538
      8 C                     0.566437
      9 F                    -0.233936
     10 F                    -0.249044
     11 C                     0.145661
     12 C                    -0.536143
     13 C                    -0.268016
     14 H                     0.144268
     15 H                     0.142624
     16 H                     0.127226
     17 H                     0.126505
     18 H                     0.128067
     19 H                     0.168623
     20 H                     0.157059
     21 H                     0.154266
     22 H                     0.173804
     23 H                     0.121638
  ----------------------------------------
  Sum of atomic charges =     0.000000

                    Cartesian Multipole Moments
 -----------------------------------------------------------------
    Charge (ESU x 10^10)
                 0.0000
    Dipole Moment (Debye)
         X       0.6966      Y      -0.1428      Z      -0.4862
       Tot       0.8614
    Quadrupole Moments (Debye-Ang)
        XX     -74.3189     XY       0.3874     YY     -67.5859
        XZ       2.0901     YZ       0.0517     ZZ     -76.7559

 Total job time:  49.63s(wall), 46.63s(cpu)
        *  Thank you very much for using Q-Chem.  Have a nice day.  *
