 Q-Chem 5.2, Q-Chem, Inc., Pleasanton, CA (2019)
 Q-Chem 5.2.1 for Intel X86 EM64T Linux

User input:
--------------------------------------------------------------
$molecule
0 1
C         3.59258779760000   -2.01151313000000    0.12588984530000
C         2.28017579160000   -2.05784525350000   -0.06530818840000
C         1.35340416870000   -0.93067540650000   -0.03420952810000
C         1.78107403620000    0.39277668710000   -0.00284260870000
C         0.86158583250000    1.43369620970000    0.03164819260000
C         1.26186584030000    2.83715313850000    0.05759674500000
C         2.48255846860000    3.31827933550000   -0.14208385280000
C        -0.50263959630000    1.13205991730000    0.04494391480000
C        -0.96211815740000   -0.17531910860000    0.00536228730000
C        -2.44135121300000   -0.53239132410000    0.00555441350000
C        -3.34753364230000    0.69988148710000    0.07225866530000
C        -2.76902208280000   -1.29722616160000   -1.28451853140000
C        -2.74497808990000   -1.41339674550000    1.22543759180000
C        -0.01562686130000   -1.19240494470000   -0.03953034790000
H         4.19604315690000   -2.90243751640000    0.08907875330000
H         4.11969056530000   -1.09607098690000    0.33333710660000
H         1.81386692450000   -3.01823997230000   -0.25188621010000
H         2.83588873500000    0.61224715120000   -0.00557496680000
H         0.45222022090000    3.53207854650000    0.24783013880000
H         3.33021205580000    2.68919329270000   -0.35347243240000
H         2.68050495690000    4.37601245950000   -0.10712170670000
H        -1.19782879690000    1.95577978730000    0.07776981680000
H        -3.19529261430000    1.34572250880000   -0.78946722380000
H        -3.16853790850000    1.26853660550000    0.98193995110000
H        -4.38891790980000    0.38388701320000    0.07393901120000
H        -2.53528269500000   -0.68565960880000   -2.15367665600000
H        -3.82733254760000   -1.54835230440000   -1.31326459490000
H        -2.19882348390000   -2.21935542600000   -1.35460192270000
H        -2.49126984800000   -0.88573622440000    2.14264707070000
H        -2.17787827870000   -2.33959724590000    1.19828372180000
H        -3.80350208240000   -1.66387088120000    1.25257487340000
H        -0.33454060340000   -2.22414933230000   -0.07070139860000
$end

$rem
BASIS = 6-31G*
GUI = 2
METHOD = B3LYP
PRINT_ORBITALS false
MOLDEN_FORMAT false
--------------------------------------------------------------

             Standard Nuclear Orientation (Angstroms)
    I     Atom           X                Y                Z
 ----------------------------------------------------------------
    1      C       3.1082029002     2.7559292720    -0.1168518494
    2      C       1.8184769156     2.5098023890     0.0759098411
    3      C       1.1637799564     1.2058216122     0.0386183280
    4      C       1.8733979258     0.0098934322    -0.0014936303
    5      C       1.2067268149    -1.2083427553    -0.0416414311
    6      C       1.9073340378    -2.4883823285    -0.0768120599
    7      C       3.2046553267    -2.6888754796     0.1186494993
    8      C      -0.1904547078    -1.2157335976    -0.0517120748
    9      C      -0.9275212332    -0.0425620665    -0.0034558159
   10      C      -2.4490897789    -0.0213962133     0.0000375976
   11      C      -3.0605528778    -1.4231135534    -0.0735403268
   12      C      -2.9347321480     0.6444047299     1.2952168610
   13      C      -2.9428404648     0.7778815865    -1.2139805491
   14      C      -0.2292215543     1.1583396045     0.0469173448
   15      H       3.4998313731     3.7579956264    -0.0750206399
   16      H       3.8241725422     1.9809335460    -0.3305692041
   17      H       1.1518089745     3.3422026833     0.2689822106
   18      H       2.9506356494     0.0290658120    -0.0011681724
   19      H       1.2709255132    -3.3439847611    -0.2706283722
   20      H       3.8927372565    -1.8892033393     0.3331692199
   21      H       3.6314785093    -3.6764372800     0.0768381759
   22      H      -0.6863957397    -2.1725662159    -0.0890460024
   23      H      -2.7672724912    -2.0244018806     0.7839551112
   24      H      -2.7623899111    -1.9327194768    -0.9869563362
   25      H      -4.1460309251    -1.3451893116    -0.0722193221
   26      H      -2.5695309635     0.0945175255     2.1602808775
   27      H      -4.0223043235     0.6551446083     1.3265718278
   28      H      -2.5823586662     1.6693528202     1.3705484326
   29      H      -2.5808953800     0.3248187125    -2.1347392110
   30      H      -2.5944896427     1.8063692113    -1.1815489908
   31      H      -4.0306074819     0.7882694111    -1.2385116902
   32      H      -0.7682809686     2.0938325166     0.0848916783
 ----------------------------------------------------------------

    8    -544.2994130620      6.52e-06  Convergence criterion met
 Total energy in the final basis set =     -544.2994130620

                    Orbital Energies (a.u.)
 --------------------------------------------------------------

 Alpha MOs
 -- Occupied --
-10.1979 -10.1909 -10.1904 -10.1875 -10.1875 -10.1871 -10.1801 -10.1799
-10.1797 -10.1773 -10.1769 -10.1707 -10.1701 -10.1700  -0.8690  -0.8241
 -0.8007  -0.7664  -0.7235  -0.7212  -0.6865  -0.6864  -0.6351  -0.6120
 -0.5835  -0.5508  -0.5196  -0.5089  -0.4793  -0.4675  -0.4559  -0.4412
 -0.4371  -0.4306  -0.4209  -0.4029  -0.3979  -0.3776  -0.3756  -0.3730
 -0.3709  -0.3664  -0.3592  -0.3390  -0.3324  -0.3194  -0.3146  -0.3115
 -0.2742  -0.2247  -0.2168

          Ground-State Mulliken Net Atomic Charges

     Atom                 Charge (a.u.)
  ----------------------------------------
      1 C                    -0.352227
      2 C                    -0.115160
      3 C                     0.186718
      4 C                    -0.253900
      5 C                     0.192328
      6 C                    -0.115626
      7 C                    -0.352150
      8 C                    -0.282460
      9 C                     0.199135
     10 C                     0.004487
     11 C                    -0.455040
     12 C                    -0.437444
     13 C                    -0.437561
     14 C                    -0.268873
     15 H                     0.142784
     16 H                     0.143022
     17 H                     0.124997
     18 H                     0.122931
     19 H                     0.125365
     20 H                     0.142695
     21 H                     0.142551
     22 H                     0.124652
     23 H                     0.146389
     24 H                     0.146037
     25 H                     0.141747
     26 H                     0.148503
     27 H                     0.138842
     28 H                     0.143451
     29 H                     0.148390
     30 H                     0.143766
     31 H                     0.138700
     32 H                     0.122950
  ----------------------------------------
  Sum of atomic charges =     0.000000

                    Cartesian Multipole Moments
 -----------------------------------------------------------------
    Charge (ESU x 10^10)
                 0.0000
    Dipole Moment (Debye)
         X      -0.5955      Y       0.0137      Z       0.0015
       Tot       0.5957
    Quadrupole Moments (Debye-Ang)
        XX     -79.7182     XY       0.0400     YY     -80.3833
        XZ      -0.0145     YZ       0.7096     ZZ     -89.9241

 Total job time:  43.69s(wall), 43.52s(cpu)
        *  Thank you very much for using Q-Chem.  Have a nice day.  *
