 Q-Chem 5.2, Q-Chem, Inc., Pleasanton, CA (2019)
 Q-Chem 5.2.1 for Intel X86 EM64T Linux

User input:
--------------------------------------------------------------
$molecule
0 1
C        -1.12656762960000   -2.64262817720000    0.51067159730000
C        -1.84634636820000   -1.71074885190000   -0.10001832580000
C        -1.54029670830000   -0.28171545100000   -0.14005949510000
N        -2.61156111600000    0.50519577080000   -0.10031082140000
C        -2.46127590300000    1.81225204590000   -0.05265587450000
C        -1.21856183920000    2.43077903600000   -0.04620185550000
C        -0.09507473760000    1.63196993650000   -0.14784402570000
C        -0.23303464910000    0.24441330490000   -0.20694336970000
C         0.91581446630000   -0.62689777930000   -0.41271431470000
C         2.15427730190000   -0.39438206780000   -0.00795879670000
F         2.58649606450000    0.63817463380000    0.70836560130000
F         3.17415213490000   -1.21695819450000   -0.24482650640000
H        -1.44294873680000   -3.67175930160000    0.52678780650000
H        -0.21887453080000   -2.41594209560000    1.04487078090000
H        -2.79427621850000   -1.96354766000000   -0.55515939170000
H        -3.37776646680000    2.38659727420000   -0.02103995570000
H        -1.13340257520000    3.50442435890000    0.00843430050000
H         0.88502834840000    2.08054450380000   -0.20344831280000
H         0.74918021470000   -1.54921024100000   -0.94941146060000
$end

$rem
BASIS = 6-31G*
GUI = 2
METHOD = B3LYP
PRINT_ORBITALS false
MOLDEN_FORMAT false
--------------------------------------------------------------

             Standard Nuclear Orientation (Angstroms)
    I     Atom           X                Y                Z
 ----------------------------------------------------------------
    1      C      -0.2692079722    -2.8285512507     0.4977532073
    2      C      -1.2350526804    -2.1260742503    -0.0793886775
    3      C      -1.3357229786    -0.6677645802    -0.1039762267
    4      N      -2.5806893668    -0.2071662726    -0.0244491838
    5      C      -2.7949162924     1.0901892803     0.0405749596
    6      C      -1.7709792737     2.0273587848     0.0256807413
    7      C      -0.4743338994     1.5702596112    -0.1172230530
    8      C      -0.2264202295     0.1990260355    -0.1953022977
    9      C       1.1115726423    -0.3198690476    -0.4441033124
   10      C       2.2491886452     0.2416663867    -0.0670243199
   11      F       2.4006878893     1.3471622980     0.6548023996
   12      F       3.4489346197    -0.2656849453    -0.3428624860
   13      H      -0.2892980368    -3.9051240564     0.5051688492
   14      H       0.5558992441    -2.3649524114     1.0124728464
   15      H      -2.0893591993    -2.6265499939    -0.5144932973
   16      H      -3.8328482311     1.3892250545     0.1046207038
   17      H      -1.9832959293     3.0823432711     0.0955438980
   18      H       0.3422895682     2.2721875665    -0.1902730107
   19      H       1.1900678035    -1.2477075146    -0.9913010519
 ----------------------------------------------------------------

    9    -601.5477498131      4.89e-06  Convergence criterion met
 Total energy in the final basis set =     -601.5477498131

                    Orbital Energies (a.u.)
 --------------------------------------------------------------

 Alpha MOs
 -- Occupied --
-24.7459 -24.7378 -14.3262 -10.3600 -10.2307 -10.2206 -10.2157 -10.2073
-10.2060 -10.1985 -10.1934 -10.1883  -1.2878  -1.2275  -0.9531  -0.8385
 -0.8078  -0.7769  -0.7396  -0.6626  -0.6403  -0.6223  -0.5844  -0.5694
 -0.5334  -0.5223  -0.5052  -0.5007  -0.4663  -0.4529  -0.4446  -0.4380
 -0.4290  -0.4218  -0.4046  -0.4042  -0.3823  -0.3579  -0.3140  -0.3027
 -0.2652  -0.2542  -0.2255

          Ground-State Mulliken Net Atomic Charges

     Atom                 Charge (a.u.)
  ----------------------------------------
      1 C                    -0.343329
      2 C                    -0.093110
      3 C                     0.217845
      4 N                    -0.474219
      5 C                     0.042784
      6 C                    -0.147253
      7 C                    -0.146763
      8 C                     0.134535
      9 C                    -0.328942
     10 C                     0.552587
     11 F                    -0.238070
     12 F                    -0.246151
     13 H                     0.150472
     14 H                     0.158905
     15 H                     0.151337
     16 H                     0.140851
     17 H                     0.138779
     18 H                     0.148316
     19 H                     0.181425
  ----------------------------------------
  Sum of atomic charges =     0.000000

                    Cartesian Multipole Moments
 -----------------------------------------------------------------
    Charge (ESU x 10^10)
                 0.0000
    Dipole Moment (Debye)
         X       0.4579      Y       0.5954      Z      -0.3085
       Tot       0.8120
    Quadrupole Moments (Debye-Ang)
        XX     -72.0184     XY      -4.2309     YY     -59.1771
        XZ       0.3397     YZ       0.0805     ZZ     -68.1172

 Total job time:  23.53s(wall), 23.44s(cpu)
        *  Thank you very much for using Q-Chem.  Have a nice day.  *
