 Q-Chem 5.2, Q-Chem, Inc., Pleasanton, CA (2019)
 Q-Chem 5.2.1 for Intel X86 EM64T Linux

User input:
--------------------------------------------------------------
$molecule
0 1
C        -5.84573440940000   -0.81112331670000    0.21131772120000
C        -5.00462252330000    0.16614879600000   -0.10681676620000
C        -3.54969968720000    0.11653428170000   -0.06090485620000
C        -2.82133844860000    1.23955284680000   -0.45961161330000
C        -1.44279229280000    1.24561527240000   -0.43372536740000
C        -0.73343139190000    0.12214877600000   -0.01219123080000
C         0.73343043110000    0.12214123020000    0.01321321690000
C         1.44293162270000    1.24607658720000    0.43325331000000
C         2.82149411630000    1.24011657120000    0.45844800850000
C         3.54972745820000    0.11673663560000    0.06051321950000
C         5.00467657670000    0.16660693080000    0.10528436770000
C         5.84561996050000   -0.81106756760000   -0.21203710000000
C         2.83496614010000   -1.00505000980000   -0.36367501750000
C         1.45663324620000   -1.00266197280000   -0.38321222900000
C        -1.45676238200000   -1.00220720450000    0.38526508420000
C        -2.83509013790000   -1.00468976310000    0.36503481340000
H        -6.91156912000000   -0.67580195590000    0.14283193500000
H        -5.51649588070000   -1.77861157160000    0.54942634190000
H        -5.40933974450000    1.11399772410000   -0.44197676200000
H        -3.35103696120000    2.11965699740000   -0.79760277710000
H        -0.90476216210000    2.12209716460000   -0.76503620920000
H         0.90502806290000    2.12291840410000    0.76382041820000
H         3.35131824230000    2.12063089900000    0.79517115620000
H         5.40956086750000    1.11495667100000    0.43885927760000
H         5.51621096360000   -1.77916340020000   -0.54822435880000
H         6.91149148100000   -0.67553770050000   -0.14455431860000
H         3.36308102060000   -1.88934935190000   -0.68561976950000
H         0.92695523230000   -1.87726362470000   -0.73274860870000
H        -0.92721289730000   -1.87638266200000    0.73606288200000
H        -3.36332776270000   -1.88863909200000    0.68773699490000
$end

$rem
BASIS = 6-31G*
GUI = 2
METHOD = B3LYP
PRINT_ORBITALS false
MOLDEN_FORMAT false
--------------------------------------------------------------

             Standard Nuclear Orientation (Angstroms)
    I     Atom           X                Y                Z
 ----------------------------------------------------------------
    1      C       5.8464074663    -0.8032533031    -0.1921141974
    2      C       5.0042468668     0.1741390165     0.1228609087
    3      C       3.5494809887     0.1244603622     0.0722819234
    4      C       2.8198066121     1.2476392576     0.4681257597
    5      C       1.4413508935     1.2536489486     0.4377931051
    6      C       0.7333841985     0.1299690285     0.0144876827
    7      C      -0.7333881102     0.1299063477    -0.0156450916
    8      C      -1.4415633025     1.2536287238    -0.4384833892
    9      C      -2.8200372489     1.2476162898    -0.4681190617
   10      C      -3.5495178780     0.1243965710    -0.0720207769
   11      C      -5.0043165218     0.1742032359    -0.1215045289
   12      C      -5.8462508570    -0.8033512171     0.1935509900
   13      C      -2.8360960189    -0.9971750434     0.3549816173
   14      C      -1.4578333331    -0.9947371783     0.3789607241
   15      C       1.4580243596    -0.9945468604    -0.3801213224
   16      C       2.8362798107    -0.9969792740    -0.3554469520
   17      H       6.9120120553    -0.6678690508    -0.1202548356
   18      H       5.5182878435    -1.7709056213    -0.5308404525
   19      H       5.4078548488     1.1221529035     0.4588908318
   20      H       3.3483880206     2.1279133763     0.8074206572
   21      H       0.9022308431     2.1302660701     0.7669675213
   22      H      -0.9026216748     2.1303354637    -0.7677152812
   23      H      -3.3487980184     2.1279610405    -0.8069504840
   24      H      -5.4081501672     1.1223885375    -0.4568159661
   25      H      -5.5178999774    -1.7712836561     0.5312404845
   26      H      -6.9119031287    -0.6678838130     0.1225708028
   27      H      -3.3652210134    -1.8813429545     0.6756261590
   28      H      -0.9292601457    -1.8691634070     0.7306021391
   29      H       0.9296330937    -1.8688981302    -0.7322250135
   30      H       3.3655798664    -1.8810601910    -0.6760409092
 ----------------------------------------------------------------

    8    -618.1034405317      6.47e-06  Convergence criterion met
 Total energy in the final basis set =     -618.1034405317

                    Orbital Energies (a.u.)
 --------------------------------------------------------------

 Alpha MOs
 -- Occupied --
-10.1948 -10.1945 -10.1938 -10.1938 -10.1895 -10.1895 -10.1870 -10.1870
-10.1869 -10.1869 -10.1864 -10.1864 -10.1859 -10.1859 -10.1791 -10.1791
 -0.8749  -0.8569  -0.8083  -0.7824  -0.7534  -0.7457  -0.7437  -0.7068
 -0.6417  -0.6213  -0.6087  -0.5895  -0.5640  -0.5569  -0.5258  -0.4904
 -0.4849  -0.4645  -0.4577  -0.4431  -0.4429  -0.4246  -0.4221  -0.4153
 -0.4145  -0.3909  -0.3803  -0.3706  -0.3670  -0.3504  -0.3448  -0.3374
 -0.3322  -0.3130  -0.2892  -0.2537  -0.2534  -0.2367  -0.2054

          Ground-State Mulliken Net Atomic Charges

     Atom                 Charge (a.u.)
  ----------------------------------------
      1 C                    -0.353202
      2 C                    -0.114247
      3 C                     0.183620
      4 C                    -0.204783
      5 C                    -0.171550
      6 C                     0.090187
      7 C                     0.090188
      8 C                    -0.171573
      9 C                    -0.204786
     10 C                     0.183617
     11 C                    -0.114246
     12 C                    -0.353199
     13 C                    -0.189621
     14 C                    -0.173802
     15 C                    -0.173822
     16 C                    -0.189626
     17 H                     0.144247
     18 H                     0.142413
     19 H                     0.126429
     20 H                     0.128157
     21 H                     0.132298
     22 H                     0.132298
     23 H                     0.128155
     24 H                     0.126432
     25 H                     0.142416
     26 H                     0.144244
     27 H                     0.127350
     28 H                     0.132528
     29 H                     0.132529
     30 H                     0.127351
  ----------------------------------------
  Sum of atomic charges =     0.000000

                    Cartesian Multipole Moments
 -----------------------------------------------------------------
    Charge (ESU x 10^10)
                 0.0000
    Dipole Moment (Debye)
         X      -0.0001      Y       0.0709      Z       0.0001
       Tot       0.0709
    Quadrupole Moments (Debye-Ang)
        XX     -85.0256     XY      -0.0015     YY     -84.3681
        XZ       0.4342     YZ       0.0025     ZZ     -98.0691

 Total job time:  42.10s(wall), 41.98s(cpu)
        *  Thank you very much for using Q-Chem.  Have a nice day.  *
