 Q-Chem 5.2, Q-Chem, Inc., Pleasanton, CA (2019)
 Q-Chem 5.2.1 for Intel X86 EM64T Linux

User input:
--------------------------------------------------------------
$molecule
0 1
C         2.58086667800000   -1.41400544880000    0.56766711300000
C         2.14684932160000   -0.34773608270000   -0.09567901150000
C         0.79628505650000    0.16440781440000   -0.10584509490000
S         0.61419647990000    1.87351666270000   -0.39930481060000
C        -1.07987353400000    1.78024509880000   -0.14029977610000
C        -1.49631354820000    0.52071432530000    0.14945151990000
C        -2.92051731240000    0.15023702630000    0.40222604930000
C        -0.42138577410000   -0.42160556240000    0.15810231170000
C        -0.68501323400000   -1.84396023070000    0.35528089050000
C        -0.18553418110000   -2.81868010640000   -0.38953179630000
H         3.61755430520000   -1.70102306150000    0.54007334120000
H         1.92251190490000   -2.02959756320000    1.15511535950000
H         2.85407329380000    0.26278352140000   -0.64457687870000
H        -1.67397365830000    2.66950371850000   -0.21845136350000
H        -3.56504843910000    1.01657663150000    0.27671713010000
H        -3.04150753670000   -0.22834409560000    1.41717950010000
H        -3.23783224100000   -0.62925645200000   -0.28933341690000
H        -1.40234864680000   -2.07191548190000    1.13475168560000
H         0.50647233350000   -2.62030589550000   -1.19063949610000
H        -0.44620730890000   -3.84970120840000   -0.22098799130000
$end

$rem
BASIS = 6-31G*
GUI = 2
METHOD = B3LYP
PRINT_ORBITALS false
MOLDEN_FORMAT false
--------------------------------------------------------------

             Standard Nuclear Orientation (Angstroms)
    I     Atom           X                Y                Z
 ----------------------------------------------------------------
    1      C       2.9069102718     0.4225177161     0.5707225984
    2      C       1.9104334324     1.0841688319    -0.0077073603
    3      C       0.5234342425     0.6827454440    -0.0465797868
    4      S      -0.6537153517     1.9622650116    -0.1787781942
    5      C      -1.9475429344     0.8443345604    -0.0307981377
    6      C      -1.5189490872    -0.4367133860     0.1071124909
    7      C      -2.4305591672    -1.6121003831     0.2372555765
    8      C      -0.0934185637    -0.5411310075     0.0854096441
    9      C       0.5539917972    -1.8491170504     0.1241906720
   10      C       1.5297168524    -2.2370977468    -0.6831108172
   11      H       3.9072978584     0.8188244594     0.5759575073
   12      H       2.7587633450    -0.5271470645     1.0541162202
   13      H       2.1011604789     2.0546374654    -0.4504292003
   14      H      -2.9579590275     1.2025467308    -0.0550237597
   15      H      -3.4680798167    -1.2968030461     0.1607332604
   16      H      -2.2865484799    -2.1013311894     1.2005867489
   17      H      -2.2240335855    -2.3404528993    -0.5459449968
   18      H       0.1280371929    -2.5488958882     0.8334019697
   19      H       1.9529539218    -1.5734437124    -1.4182520255
   20      H       1.9437526773    -3.2298169137    -0.6336638966
 ----------------------------------------------------------------

    9    -747.1110431060      4.09e-06  Convergence criterion met
 Total energy in the final basis set =     -747.1110431060

                    Orbital Energies (a.u.)
 --------------------------------------------------------------

 Alpha MOs
 -- Occupied --
-88.8999 -10.2135 -10.2027 -10.1930 -10.1924 -10.1906 -10.1899 -10.1842
-10.1782 -10.1747  -7.9619  -5.9257  -5.9222  -5.9190  -0.8867  -0.7928
 -0.7903  -0.7503  -0.7050  -0.6742  -0.6095  -0.5832  -0.5524  -0.5033
 -0.4776  -0.4637  -0.4513  -0.4279  -0.4182  -0.4108  -0.3871  -0.3760
 -0.3695  -0.3561  -0.3522  -0.3332  -0.2885  -0.2831  -0.2305  -0.2018

          Ground-State Mulliken Net Atomic Charges

     Atom                 Charge (a.u.)
  ----------------------------------------
      1 C                    -0.333579
      2 C                    -0.092565
      3 C                    -0.214087
      4 S                     0.239341
      5 C                    -0.409366
      6 C                     0.167509
      7 C                    -0.521361
      8 C                     0.123177
      9 C                    -0.146780
     10 C                    -0.319176
     11 H                     0.140437
     12 H                     0.154257
     13 H                     0.134135
     14 H                     0.162883
     15 H                     0.156278
     16 H                     0.161820
     17 H                     0.168752
     18 H                     0.132726
     19 H                     0.155265
     20 H                     0.140334
  ----------------------------------------
  Sum of atomic charges =     0.000000

                    Cartesian Multipole Moments
 -----------------------------------------------------------------
    Charge (ESU x 10^10)
                 0.0000
    Dipole Moment (Debye)
         X      -0.4083      Y      -0.9523      Z       0.0847
       Tot       1.0396
    Quadrupole Moments (Debye-Ang)
        XX     -59.9266     XY       0.2229     YY     -63.9859
        XZ      -0.8737     YZ      -1.7701     ZZ     -68.8064

 Total job time:  24.47s(wall), 23.57s(cpu)
        *  Thank you very much for using Q-Chem.  Have a nice day.  *
