 Q-Chem 5.2, Q-Chem, Inc., Pleasanton, CA (2019)
 Q-Chem 5.2.1 for Intel X86 EM64T Linux

User input:
--------------------------------------------------------------
$molecule
0 1
C         5.89871814240000   -0.18783328520000   -0.47289794740000
C         4.99304219830000    0.23026389710000    0.40344593240000
C         3.54423082450000    0.19964619040000    0.25113166890000
C         2.74828725870000    0.75776329900000    1.25374503350000
C         1.37277084800000    0.74226241280000    1.14672534680000
C         0.73606317970000    0.18055144440000    0.04503805300000
C        -0.73592762630000    0.18105574880000   -0.04451527190000
C        -1.37227788730000    0.74329950180000   -1.14613565800000
C        -2.74779397370000    0.75996290260000   -1.25300290660000
C        -3.54411707050000    0.20204457160000   -0.25056951970000
C        -4.99288446890000    0.23343241410000   -0.40309430730000
C        -5.89881948440000   -0.19395088530000    0.46849105850000
C        -2.91168220180000   -0.36781556980000    0.84986116030000
C        -1.52626386020000   -0.38293060620000    0.97457078440000
N        -0.94846893360000   -0.91619774890000    2.10969223560000
C         1.52602047280000   -0.38409988480000   -0.97397331790000
N         0.94785334210000   -0.91726346020000   -2.10896972950000
C         2.91145190630000   -0.36985011790000   -0.84927907950000
H         6.95281841680000   -0.11900424090000   -0.26464925710000
H         5.63640646140000   -0.60849445990000   -1.42844856890000
H         5.33292309380000    0.65152526110000    1.34235285480000
H         3.21430938140000    1.20818333870000    2.11805559280000
H         0.76671474690000    1.18853974560000    1.92194726790000
H        -0.76593637650000    1.18917555380000   -1.92136771870000
H        -3.21351042060000    1.21078825840000   -2.11726964300000
H        -5.33253294210000    0.66307041810000   -1.33828673920000
H        -5.63690081900000   -0.62427844400000    1.41983615730000
H        -6.95283566890000   -0.12381718650000    0.26024439550000
H        -3.49793120970000   -0.81650629050000    1.63810940170000
H        -1.51765177270000   -1.55773580180000    2.63715138490000
H         0.02512631880000   -1.16668302640000    2.03851572900000
H        -0.02600173100000   -1.16671502680000   -2.03768957940000
H         1.51636759920000   -1.55986422780000   -2.63588100690000
H         3.49743868610000   -0.81948370940000   -1.63719138960000
$end

$rem
BASIS = 6-31G*
GUI = 2
METHOD = B3LYP
PRINT_ORBITALS false
MOLDEN_FORMAT false
--------------------------------------------------------------

             Standard Nuclear Orientation (Angstroms)
    I     Atom           X                Y                Z
 ----------------------------------------------------------------
    1      C       5.9061481464    -0.3686157218     0.1783633681
    2      C       4.9851509716     0.4914634688    -0.2400392552
    3      C       3.5392536106     0.3136071725    -0.2093890509
    4      C       2.7257452893     1.3018263707    -0.7678525261
    5      C       1.3523321630     1.1705464102    -0.7523333899
    6      C       0.7351613938     0.0579791734    -0.1902612011
    7      C      -0.7350191300    -0.0575455840    -0.1907543482
    8      C      -1.3518126683    -1.1704161826    -0.7526368354
    9      C      -2.7252275586    -1.3015544993    -0.7692820355
   10      C      -3.5391330867    -0.3131480355    -0.2117100784
   11      C      -4.9849816009    -0.4912348211    -0.2430653488
   12      C      -5.9061696466     0.3643652927     0.1840140544
   13      C      -2.9262334713     0.7984664754     0.3577891454
   14      C      -1.5432328132     0.9476186731     0.3728801253
   15      N      -0.9855763398     2.0929417222     0.9057740196
   16      C       1.5429737286    -0.9467389620     0.3747419161
   17      N       0.9849229191    -2.0915862658     0.9082786331
   18      C       2.9259882984    -0.7976117548     0.3604680997
   19      H       6.9564092146    -0.1418144009     0.1094780123
   20      H       5.6607378991    -1.3285070683     0.5993415689
   21      H       5.3084121702     1.4360828479    -0.6616110698
   22      H       3.1764454629     2.1740780315    -1.2185563842
   23      H       0.7326937871     1.9347991877    -1.1988784129
   24      H      -0.7318720311    -1.9349729658    -1.1982451400
   25      H      -3.1756059903    -2.1740589001    -1.2198235330
   26      H      -5.3080600418    -1.4324212700    -0.6723940967
   27      H      -5.6610940588     1.3203299484     0.6140259442
   28      H      -6.9563440700     0.1375209253     0.1139366753
   29      H      -3.5263145654     1.5763930485     0.8062080116
   30      H      -1.5639937994     2.6104857386     1.5471278730
   31      H      -0.0108810081     2.0390472225     1.1562956316
   32      H       0.0099566099    -2.0374252272     1.1576937990
   33      H       1.5626381674    -2.6081640620     1.5510633357
   34      H       3.5257844424    -1.5749061046     0.8103733791
 ----------------------------------------------------------------

    9    -728.8073304425      1.51e-06  Convergence criterion met
 Total energy in the final basis set =     -728.8073304425

                    Orbital Energies (a.u.)
 --------------------------------------------------------------

 Alpha MOs
 -- Occupied --
-14.3357 -14.3357 -10.2235 -10.2235 -10.1879 -10.1879 -10.1850 -10.1850
-10.1843 -10.1840 -10.1787 -10.1787 -10.1751 -10.1751 -10.1743 -10.1743
-10.1713 -10.1713  -0.9264  -0.9173  -0.8461  -0.8418  -0.7987  -0.7753
 -0.7397  -0.7270  -0.7267  -0.7002  -0.6373  -0.6225  -0.5968  -0.5884
 -0.5656  -0.5596  -0.5209  -0.5164  -0.5122  -0.4920  -0.4787  -0.4594
 -0.4558  -0.4526  -0.4339  -0.4224  -0.4182  -0.4141  -0.4045  -0.3914
 -0.3859  -0.3785  -0.3595  -0.3479  -0.3464  -0.3424  -0.3289  -0.3220
 -0.3203  -0.2907  -0.2741  -0.2290  -0.2183  -0.2022  -0.1878

          Ground-State Mulliken Net Atomic Charges

     Atom                 Charge (a.u.)
  ----------------------------------------
      1 C                    -0.352345
      2 C                    -0.118697
      3 C                     0.187604
      4 C                    -0.214729
      5 C                    -0.195918
      6 C                     0.018500
      7 C                     0.018455
      8 C                    -0.195891
      9 C                    -0.214766
     10 C                     0.187670
     11 C                    -0.118643
     12 C                    -0.352396
     13 C                    -0.252786
     14 C                     0.304574
     15 N                    -0.814366
     16 C                     0.304490
     17 N                    -0.814330
     18 C                    -0.252741
     19 H                     0.141645
     20 H                     0.139302
     21 H                     0.125366
     22 H                     0.119278
     23 H                     0.148067
     24 H                     0.148062
     25 H                     0.119285
     26 H                     0.125361
     27 H                     0.139253
     28 H                     0.141658
     29 H                     0.110315
     30 H                     0.321204
     31 H                     0.333008
     32 H                     0.333000
     33 H                     0.321199
     34 H                     0.110312
  ----------------------------------------
  Sum of atomic charges =     0.000000

                    Cartesian Multipole Moments
 -----------------------------------------------------------------
    Charge (ESU x 10^10)
                 0.0000
    Dipole Moment (Debye)
         X      -0.0009      Y       0.0022      Z       2.5787
       Tot       2.5787
    Quadrupole Moments (Debye-Ang)
        XX    -101.2877     XY      -1.2476     YY     -96.7063
        XZ       0.0013     YZ       0.0140     ZZ    -103.8011

 Total job time:  68.25s(wall), 68.04s(cpu)
        *  Thank you very much for using Q-Chem.  Have a nice day.  *
