 Q-Chem 5.2, Q-Chem, Inc., Pleasanton, CA (2019)
 Q-Chem 5.2.1 for Intel X86 EM64T Linux

User input:
--------------------------------------------------------------
$molecule
0 1
C        -2.53512880190000    2.55346545330000    0.16374871660000
C        -2.35259921020000    1.29452758190000   -0.21431638950000
C        -1.09441018160000    0.58686089910000   -0.09572263730000
C         0.19692484990000    1.16603541240000   -0.04654829810000
C         1.09481933200000    0.13150545500000   -0.01911576700000
C         2.56289272770000    0.14115982820000    0.03122158120000
O         3.21474326350000    1.14950345420000    0.05764089380000
O         3.13307194750000   -1.07736160140000    0.04575762610000
O         0.43587212080000   -1.05686455060000   -0.04733864410000
C        -0.88978114780000   -0.78835738430000   -0.08468886870000
C        -1.77980496150000   -1.92108600960000   -0.09408149930000
C        -3.06423624670000   -1.90802360970000    0.25140842510000
H        -3.48219240360000    3.04789571220000    0.03591306730000
H        -1.75181331530000    3.12856790240000    0.62676273110000
H        -3.16252128530000    0.73467153030000   -0.66185210470000
H         0.44646547220000    2.20631412170000   -0.05302063000000
H         2.46668842430000   -1.77963160580000    0.02258196160000
H        -1.30471770460000   -2.84962310420000   -0.38471171840000
H        -3.55771450620000   -1.01994735800000    0.60325616970000
H        -3.65614810550000   -2.80537999680000    0.20932581660000
$end

$rem
BASIS = 6-31G*
GUI = 2
METHOD = B3LYP
PRINT_ORBITALS false
MOLDEN_FORMAT false
--------------------------------------------------------------

             Standard Nuclear Orientation (Angstroms)
    I     Atom           X                Y                Z
 ----------------------------------------------------------------
    1      C      -2.4765048623    -2.5295639751    -0.1479479177
    2      C      -2.2827490952    -1.2708374152     0.2252021734
    3      C      -1.0188655925    -0.5742119669     0.1018825885
    4      C       0.2674702637    -1.1643996792     0.0526289050
    5      C       1.1739768041    -0.1375631770     0.0198879905
    6      C       2.6418278825    -0.1597450378    -0.0329109455
    7      O       3.2851361013    -1.1736237505    -0.0567533610
    8      O       3.2221995368     1.0538778329    -0.0528705079
    9      O       0.5250879606     1.0564005976     0.0448880270
   10      C      -0.8027079659     0.7991877431     0.0854743666
   11      C      -1.6831650420     1.9393869811     0.0922407558
   12      C      -2.9682571088     1.9358677778    -0.2510137204
   13      H      -3.4274666707    -3.0155444757    -0.0166951387
   14      H      -1.6988522964    -3.1129146176    -0.6101886242
   15      H      -3.0871621820    -0.7025651528     0.6720656918
   16      H       0.5082720001    -2.2067094732     0.0624789442
   17      H       2.5617814738     1.7618061685    -0.0311282861
   18      H      -1.1997899718     2.8649482808     0.3786666346
   19      H      -3.4697885456     1.0506973991    -0.5987732283
   20      H      -3.5525342989     2.8383169265    -0.2112044346
 ----------------------------------------------------------------

    9    -573.3924644503      7.70e-06  Convergence criterion met
 Total energy in the final basis set =     -573.3924644503

                    Orbital Energies (a.u.)
 --------------------------------------------------------------

 Alpha MOs
 -- Occupied --
-19.2466 -19.1932 -19.1316 -10.3233 -10.2695 -10.2604 -10.2186 -10.2146
-10.2099 -10.2074 -10.2054 -10.1944  -1.1500  -1.1007  -1.0208  -0.8498
 -0.8247  -0.7785  -0.7552  -0.6595  -0.6534  -0.6153  -0.5946  -0.5711
 -0.5481  -0.5140  -0.4937  -0.4691  -0.4530  -0.4504  -0.4397  -0.4359
 -0.4273  -0.4119  -0.3898  -0.3809  -0.3671  -0.3371  -0.3220  -0.3125
 -0.2781  -0.2689  -0.2244

          Ground-State Mulliken Net Atomic Charges

     Atom                 Charge (a.u.)
  ----------------------------------------
      1 C                    -0.344481
      2 C                    -0.117462
      3 C                     0.065856
      4 C                    -0.202716
      5 C                     0.246153
      6 C                     0.562223
      7 O                    -0.453096
      8 O                    -0.580979
      9 O                    -0.514891
     10 C                     0.294919
     11 C                    -0.125491
     12 C                    -0.344288
     13 H                     0.151180
     14 H                     0.151163
     15 H                     0.143022
     16 H                     0.174265
     17 H                     0.424590
     18 H                     0.150186
     19 H                     0.161937
     20 H                     0.157911
  ----------------------------------------
  Sum of atomic charges =     0.000000

                    Cartesian Multipole Moments
 -----------------------------------------------------------------
    Charge (ESU x 10^10)
                 0.0000
    Dipole Moment (Debye)
         X      -4.8435      Y       2.0164      Z       0.1452
       Tot       5.2485
    Quadrupole Moments (Debye-Ang)
        XX     -79.1954     XY       5.2672     YY     -60.8442
        XZ       0.3287     YZ       1.0143     ZZ     -69.9860

 Total job time:  23.86s(wall), 23.56s(cpu)
        *  Thank you very much for using Q-Chem.  Have a nice day.  *
