 Q-Chem 5.2, Q-Chem, Inc., Pleasanton, CA (2019)
 Q-Chem 5.2.1 for Intel X86 EM64T Linux

User input:
--------------------------------------------------------------
$molecule
0 1
C         3.62373528820000    1.58030235640000    0.08987685300000
C         3.07220178050000    0.38440977540000    0.25592752850000
C         1.65428684030000    0.08117363880000    0.10939754670000
C         0.67150373220000    1.05065939150000    0.29060426650000
C        -0.68033646640000    0.76038056620000    0.15091497640000
C        -1.64381095850000    1.85598330410000    0.18013257620000
C        -2.68776541870000    1.96327133310000   -0.63482089990000
C        -1.00617529830000   -0.59614589800000   -0.06792023050000
N        -2.28615177360000   -1.09638826880000   -0.07675164320000
N        -3.31947962490000   -0.61203011480000    0.74516740310000
N        -0.06949220190000   -1.51676740200000   -0.28648254500000
C         1.21181225390000   -1.20761813780000   -0.23830038970000
C         2.16070759500000   -2.32016698950000   -0.56226778360000
H         4.68120320780000    1.73472188540000    0.22003316500000
H         3.05141105900000    2.44651419400000   -0.19679866080000
H         3.70460100220000   -0.45571857600000    0.51088363590000
H         0.96036512820000    2.06469855540000    0.52795045330000
H        -1.42136890250000    2.65278007800000    0.88056900910000
H        -2.88863931250000    1.22707864380000   -1.39673860750000
H        -3.34651418370000    2.81463723320000   -0.60023622240000
H        -2.29517727970000   -2.10862139810000   -0.14443751690000
H        -3.80124516830000    0.15612002320000    0.27502163840000
H        -2.94588661590000   -0.24322760730000    1.62019105670000
H         1.59241011120000   -3.18271169630000   -0.89779158900000
H         2.73661623450000   -2.60088295110000    0.31901727570000
H         2.85515338560000   -2.01690448900000   -1.34334701370000
$end

$rem
BASIS = 6-31G*
GUI = 2
METHOD = B3LYP
PRINT_ORBITALS false
MOLDEN_FORMAT false
--------------------------------------------------------------

             Standard Nuclear Orientation (Angstroms)
    I     Atom           X                Y                Z
 ----------------------------------------------------------------
    1      C       3.4692393496    -1.8573749906    -0.0424675835
    2      C       3.0109646975    -0.6352886896    -0.2841502646
    3      C       1.6255511029    -0.2084882850    -0.1345623156
    4      C       0.5646751350    -1.1053649271    -0.2281337163
    5      C      -0.7560850963    -0.6972875609    -0.0856132217
    6      C      -1.8041891883    -1.7104552759    -0.0188965231
    7      C      -2.8339087107    -1.6752471863     0.8201141443
    8      C      -0.9675940219     0.6932024948     0.0409775353
    9      N      -2.2030927723     1.2950199080     0.0366370641
   10      N      -3.2907699833     0.8396151103    -0.7298385997
   11      N       0.0443277838     1.5478579480     0.1761329178
   12      C       1.2954457953     1.1331622774     0.1274798801
   13      C       2.3373057300     2.1850431135     0.3537469154
   14      H       4.5076907260    -2.1058262488    -0.1800000109
   15      H       2.8366385447    -2.6520427057     0.3158343358
   16      H       3.7021014969     0.1307979705    -0.6100155634
   17      H       0.7661800159    -2.1536425686    -0.3971287270
   18      H      -1.6624649163    -2.5698495297    -0.6641348596
   19      H      -2.9575203110    -0.8735431313     1.5306346370
   20      H      -3.5590113505    -2.4706853851     0.8585089995
   21      H      -2.1298642380     2.3068948030     0.0315849560
   22      H      -3.8209971945     0.1479702850    -0.1972259322
   23      H      -2.9684323683     0.3812329679    -1.5826209247
   24      H       1.8475727446     3.1122592074     0.6365074916
   25      H       2.9128505982     2.3555794740    -0.5555390805
   26      H       3.0235722955     1.8819982748     1.1421059014
 ----------------------------------------------------------------

    9    -553.0697874047      2.24e-06  Convergence criterion met
 Total energy in the final basis set =     -553.0697874047

                    Orbital Energies (a.u.)
 --------------------------------------------------------------

 Alpha MOs
 -- Occupied --
-14.3669 -14.3481 -14.3153 -10.2524 -10.2236 -10.1975 -10.1973 -10.1952
-10.1890 -10.1866 -10.1824 -10.1770 -10.1752  -0.9950  -0.9363  -0.8285
 -0.8197  -0.7874  -0.7510  -0.7361  -0.6887  -0.6388  -0.6122  -0.5892
 -0.5519  -0.5343  -0.5077  -0.5019  -0.4845  -0.4677  -0.4582  -0.4363
 -0.4285  -0.4176  -0.4018  -0.3959  -0.3877  -0.3732  -0.3706  -0.3452
 -0.3218  -0.3105  -0.2738  -0.2640  -0.2509  -0.2373  -0.1968

          Ground-State Mulliken Net Atomic Charges

     Atom                 Charge (a.u.)
  ----------------------------------------
      1 C                    -0.347233
      2 C                    -0.129720
      3 C                     0.115431
      4 C                    -0.217584
      5 C                     0.132174
      6 C                    -0.142545
      7 C                    -0.372735
      8 C                     0.419923
      9 N                    -0.510741
     10 N                    -0.580792
     11 N                    -0.559417
     12 C                     0.256494
     13 C                    -0.521771
     14 H                     0.141135
     15 H                     0.139971
     16 H                     0.129995
     17 H                     0.134200
     18 H                     0.135718
     19 H                     0.164307
     20 H                     0.144908
     21 H                     0.337312
     22 H                     0.321548
     23 H                     0.306536
     24 H                     0.175264
     25 H                     0.162236
     26 H                     0.165387
  ----------------------------------------
  Sum of atomic charges =     0.000000

                    Cartesian Multipole Moments
 -----------------------------------------------------------------
    Charge (ESU x 10^10)
                 0.0000
    Dipole Moment (Debye)
         X       0.2635      Y      -1.5074      Z      -0.6693
       Tot       1.6702
    Quadrupole Moments (Debye-Ang)
        XX     -72.9058     XY       5.4391     YY     -74.6360
        XZ      -0.6610     YZ       1.0616     ZZ     -77.9333

 Total job time:  36.81s(wall), 36.68s(cpu)
        *  Thank you very much for using Q-Chem.  Have a nice day.  *
