 Q-Chem 5.2, Q-Chem, Inc., Pleasanton, CA (2019)
 Q-Chem 5.2.1 for Intel X86 EM64T Linux

User input:
--------------------------------------------------------------
$molecule
0 1
C        -3.99910922380000   -0.75530056360000    0.00602369710000
C        -3.03955695220000    0.16275373160000   -0.02068321190000
C        -1.60429217220000   -0.07982493680000   -0.00622298320000
C        -1.03629833510000   -1.35560009790000    0.01780225800000
C         0.33027010830000   -1.51994253250000    0.03202780460000
C         1.21993482250000   -0.43871750080000    0.01995035510000
C         2.64967601050000   -0.71152450920000    0.03397411930000
C         3.64784878630000    0.16154154530000   -0.05113991230000
C         0.63009555820000    0.82786947960000   -0.00251974090000
F         1.39156335010000    1.94505936800000   -0.00707696010000
C        -0.73589186700000    1.01168846220000   -0.01533297610000
H        -5.03858531920000   -0.47640118970000   -0.00730086440000
H        -3.79628795780000   -1.81170357380000    0.04289254710000
H        -3.31706300900000    1.20912249580000   -0.05529639670000
H        -1.67045396520000   -2.22771301340000    0.02528193180000
H         0.74130873290000   -2.51928270300000    0.05074415690000
H         2.88568205160000   -1.76610958770000    0.11817447060000
H         3.50078770020000    1.22194106790000   -0.14348903400000
H         4.67138484430000   -0.17352899600000   -0.03180160470000
H        -1.12022721130000    2.02074147430000   -0.03120706560000
$end

$rem
BASIS = 6-31G*
GUI = 2
METHOD = B3LYP
PRINT_ORBITALS false
MOLDEN_FORMAT false
--------------------------------------------------------------

             Standard Nuclear Orientation (Angstroms)
    I     Atom           X                Y                Z
 ----------------------------------------------------------------
    1      C       4.0250366827    -0.2701135041     0.0043073788
    2      C       2.9696707120     0.5363288148     0.0157513293
    3      C       1.5701255475     0.1360567774     0.0060494734
    4      C       1.1469603237    -1.1950043259     0.0040480512
    5      C      -0.1929766069    -1.5099198698    -0.0067840657
    6      C      -1.1969355989    -0.5338424666    -0.0127826417
    7      C      -2.5876438617    -0.9635332014    -0.0215344866
    8      C      -3.6764955581    -0.2050798883     0.0490925579
    9      C      -0.7510394564     0.7904815569    -0.0121886711
   10      F      -1.6315626359     1.8163689211    -0.0263752637
   11      C       0.5861649759     1.1246625872    -0.0031008632
   12      H       5.0272075473     0.1223920933     0.0124235176
   13      H       3.9405192667    -1.3429548504    -0.0144369531
   14      H       3.1295280041     1.6074331153     0.0323795704
   15      H       1.8738155345    -1.9915097108     0.0111839067
   16      H      -0.4907767252    -2.5488119386    -0.0082632680
   17      H      -2.7052738856    -2.0390489345    -0.0876202174
   18      H      -3.6479190934     0.8665004116     0.1232647712
   19      H      -4.6565944296    -0.6517395659     0.0359155203
   20      H       0.8563545455     2.1702002097    -0.0046178484
 ----------------------------------------------------------------

    9    -486.2803248967      1.84e-06  Convergence criterion met
 Total energy in the final basis set =     -486.2803248967

                    Orbital Energies (a.u.)
 --------------------------------------------------------------

 Alpha MOs
 -- Occupied --
-24.7080 -10.2719 -10.2044 -10.2040 -10.1964 -10.1957 -10.1937 -10.1933
-10.1902 -10.1855 -10.1781  -1.2190  -0.8749  -0.8138  -0.7724  -0.7539
 -0.7220  -0.6440  -0.6232  -0.5818  -0.5753  -0.5122  -0.5064  -0.4949
 -0.4620  -0.4603  -0.4456  -0.4364  -0.4260  -0.3961  -0.3888  -0.3770
 -0.3691  -0.3546  -0.3362  -0.3256  -0.2724  -0.2519  -0.2146

          Ground-State Mulliken Net Atomic Charges

     Atom                 Charge (a.u.)
  ----------------------------------------
      1 C                    -0.350417
      2 C                    -0.112946
      3 C                     0.185848
      4 C                    -0.178217
      5 C                    -0.210611
      6 C                     0.120403
      7 C                    -0.110383
      8 C                    -0.356699
      9 C                     0.320496
     10 F                    -0.293430
     11 C                    -0.278379
     12 H                     0.147956
     13 H                     0.145451
     14 H                     0.131365
     15 H                     0.129074
     16 H                     0.136814
     17 H                     0.128807
     18 H                     0.161992
     19 H                     0.140140
     20 H                     0.142735
  ----------------------------------------
  Sum of atomic charges =     0.000000

                    Cartesian Multipole Moments
 -----------------------------------------------------------------
    Charge (ESU x 10^10)
                 0.0000
    Dipole Moment (Debye)
         X       0.9185      Y      -0.8708      Z       0.0167
       Tot       1.2658
    Quadrupole Moments (Debye-Ang)
        XX     -57.7311     XY       2.1961     YY     -58.1376
        XZ      -0.0545     YZ       0.2421     ZZ     -67.4248

 Total job time:  21.57s(wall), 21.42s(cpu)
        *  Thank you very much for using Q-Chem.  Have a nice day.  *
