 Q-Chem 5.2, Q-Chem, Inc., Pleasanton, CA (2019)
 Q-Chem 5.2.1 for Intel X86 EM64T Linux

User input:
--------------------------------------------------------------
$molecule
0 1
C        -3.39598165620000    0.76349539590000   -0.00169625630000
C        -2.66480397960000   -0.34717713480000   -0.00152967670000
C        -1.22940404870000   -0.38658800870000    0.00010655430000
C        -0.42622850450000   -1.50414961610000   -0.00106296850000
N         0.89493364280000   -1.28741074390000   -0.00032183780000
C         1.18977121540000   -0.02721331950000    0.00155141630000
C         2.51144297330000    0.53493647310000    0.00169343310000
C         3.61601233910000   -0.20715787600000   -0.00474696540000
S        -0.22163292700000    1.02720919250000    0.00281844210000
H        -4.47100749540000    0.73217752820000   -0.00329157380000
H        -2.93715136700000    1.73866041720000   -0.00014727100000
H        -3.13928199210000   -1.32038390210000   -0.00315076380000
H        -0.78929163700000   -2.51680204770000   -0.00256324840000
H         2.55707963510000    1.61543222130000    0.00679818920000
H         3.55433225340000   -1.28131949100000   -0.01015916680000
H         4.59547203580000    0.23772270420000   -0.00492368960000
$end

$rem
BASIS = 6-31G*
GUI = 2
METHOD = B3LYP
PRINT_ORBITALS false
MOLDEN_FORMAT false
--------------------------------------------------------------

             Standard Nuclear Orientation (Angstroms)
    I     Atom           X                Y                Z
 ----------------------------------------------------------------
    1      C       3.4255054527    -0.6011962571    -0.0028281933
    2      C       2.6404918928     0.4720999239    -0.0010083845
    3      C       1.2048937065     0.4407367368     0.0007391576
    4      C       0.3476301468     1.5173681554     0.0012356399
    5      N      -0.9612483451     1.2357965354     0.0017088371
    6      C      -1.1936364112    -0.0373986724     0.0017482966
    7      C      -2.4860052142    -0.6639855562     0.0011167517
    8      C      -3.6257974595     0.0227927178    -0.0041960250
    9      S       0.2680061002    -1.0209997871     0.0014190264
   10      H       4.4976823710    -0.5169464031    -0.0044178203
   11      H       3.0152799783    -1.5977851860    -0.0026896167
   12      H       3.0664425627     1.4675040655    -0.0012225141
   13      H       0.6603577421     2.5466802977     0.0012042238
   14      H      -2.4783487689    -1.7454238488     0.0046414667
   15      H      -3.6171179111     1.0986955035    -0.0080380568
   16      H      -4.5821478462    -0.4698058722    -0.0049874232
 ----------------------------------------------------------------

    9    -723.8509294266      8.34e-06  Convergence criterion met
 Total energy in the final basis set =     -723.8509294266

                    Orbital Energies (a.u.)
 --------------------------------------------------------------

 Alpha MOs
 -- Occupied --
-88.9115 -14.3307 -10.2534 -10.2248 -10.2194 -10.2046 -10.2029 -10.1909
-10.1878  -7.9737  -5.9373  -5.9341  -5.9310  -0.9740  -0.8290  -0.8034
 -0.7655  -0.7234  -0.6367  -0.6151  -0.5525  -0.5338  -0.5090  -0.4672
 -0.4519  -0.4313  -0.4235  -0.4133  -0.3825  -0.3695  -0.3552  -0.3349
 -0.2904  -0.2718  -0.2714  -0.2122

          Ground-State Mulliken Net Atomic Charges

     Atom                 Charge (a.u.)
  ----------------------------------------
      1 C                    -0.369132
      2 C                    -0.058954
      3 C                    -0.153546
      4 C                     0.030840
      5 N                    -0.425998
      6 C                     0.102264
      7 C                    -0.095884
      8 C                    -0.322670
      9 S                     0.223236
     10 H                     0.149934
     11 H                     0.156161
     12 H                     0.143014
     13 H                     0.150704
     14 H                     0.143210
     15 H                     0.175811
     16 H                     0.151011
  ----------------------------------------
  Sum of atomic charges =     0.000000

                    Cartesian Multipole Moments
 -----------------------------------------------------------------
    Charge (ESU x 10^10)
                 0.0000
    Dipole Moment (Debye)
         X       0.5434      Y      -0.5495      Z      -0.0031
       Tot       0.7728
    Quadrupole Moments (Debye-Ang)
        XX     -51.0655     XY       4.0124     YY     -56.3703
        XZ       0.0061     YZ      -0.0115     ZZ     -63.1196

 Total job time:  14.61s(wall), 14.55s(cpu)
        *  Thank you very much for using Q-Chem.  Have a nice day.  *
