 Q-Chem 5.4, Q-Chem, Inc., Pleasanton, CA (2021)
 Q-Chem 5.4.2 for Intel X86 EM64T Linux

User input:
--------------------------------------------------------------
$molecule
0 1
C            0.47679054970000        4.56428472500000        0.00502994490000
C           -0.54709263380000        3.71999421360000       -0.00906797410000
C           -0.47292494830000        2.26263205890000        0.02071437620000
C           -1.65665462840000        1.52906294840000       -0.03164314480000
C           -1.66636585260000        0.13414076190000       -0.00940337870000
C           -2.95541799020000       -0.53892122520000       -0.06907235600000
C           -3.20560054860000       -1.83997297090000       -0.05653759070000
F           -2.34170924230000       -2.84031848410000        0.01334804580000
F           -4.43928203660000       -2.33750974280000       -0.11645820470000
C           -0.44941566820000       -0.53924791430000        0.06811852350000
C            0.74016491440000        0.17950655460000        0.12350869490000
C            2.01100455240000       -0.58907608480000        0.20505061240000
O            2.07165308760000       -1.79359997410000        0.19956743590000
O            3.08302048890000        0.20906987480000        0.29720798950000
C            4.35721993610000       -0.43081176530000        0.36443650190000
C            4.86795953740000       -0.80161249180000       -1.02050400060000
C            0.73299388640000        1.56784826500000        0.09999113580000
H            0.32179299460000        5.62911706320000       -0.02080779560000
H            1.50200346310000        4.23896098530000        0.04128364420000
H           -1.55392755120000        4.11725923020000       -0.04893138970000
H           -2.59746520700000        2.05844308000000       -0.09227989340000
H           -3.82837157730000        0.09487328730000       -0.13136507390000
H           -0.39234614450000       -1.61531280210000        0.08805152440000
H            4.27122864210000       -1.32714854280000        0.98744351670000
H            5.01417515900000        0.29668823230000        0.84597881920000
H            4.20708545250000       -1.53604372270000       -1.47410683600000
H            5.86401607310000       -1.22706482460000       -0.93922858020000
H            4.90753489680000        0.07962876110000       -1.65652106510000
H            1.67092698300000        2.09531366510000        0.14506724730000
$end

$rem
BASIS = 6-31G*
GUI = 2
METHOD = B3LYP
PRINT_ORBITALS false
MOLDEN_FORMAT false
$end
--------------------------------------------------------------

             Standard Nuclear Orientation (Angstroms)
    I     Atom           X                Y                Z
 ----------------------------------------------------------------
    1      C       1.4107988360    -4.2808542508     0.0513508615
    2      C       0.2181943611    -3.6987243589     0.0648174117
    3      C      -0.0503119900    -2.2650702018     0.0115972915
    4      C      -1.3721634295    -1.8272076656     0.0669694558
    5      C      -1.7075809228    -0.4737001130     0.0232746977
    6      C      -3.1176465755    -0.1191137529     0.0881715934
    7      C      -3.6648728885     1.0871822704     0.0585515946
    8      F      -3.0591135153     2.2601079548    -0.0372829392
    9      F      -4.9801040815     1.2840466148     0.1257429043
   10      C      -0.6822390366     0.4636134758    -0.0794236883
   11      C       0.6418163837     0.0414653326    -0.1381281123
   12      C       1.6972893611     1.0838335175    -0.2469725162
   13      O       1.4749791684     2.2691484375    -0.2608587893
   14      O       2.9252767720     0.5564043607    -0.3397816022
   15      C       4.0141927407     1.4746868215    -0.4323653637
   16      C       4.4355344279     1.9791422570     0.9403706672
   17      C       0.9592926735    -1.3095617619    -0.0930526268
   18      H       1.5090034396    -5.3518179321     0.0955367026
   19      H       2.3313438244    -3.7259472318    -0.0023753770
   20      H      -0.6676496206    -4.3192204770     0.1230423533
   21      H      -2.1627848301    -2.5603683769     0.1472057069
   22      H      -3.8178898182    -0.9379218676     0.1708547504
   23      H      -0.8782349720     1.5227483396    -0.1166907172
   24      H       3.7161326749     2.3149178385    -1.0680727627
   25      H       4.8189226207     0.9121118469    -0.9105375431
   26      H       3.6251464389     2.5470418773     1.3905491316
   27      H       5.3039758445     2.6237868782     0.8404365784
   28      H       4.6850448213     1.1429872202     1.5894156420
   29      H       1.9940767759    -1.6042810464    -0.1413486163
 ----------------------------------------------------------------

    9    -852.7131494024      7.43e-06  Convergence criterion met
 Total energy in the final basis set =     -852.7131494024

                    Orbital Energies (a.u.)
 --------------------------------------------------------------

 Alpha MOs
 -- Occupied --
-24.7471 -24.7366 -19.1912 -19.1326 -10.3606 -10.3136 -10.2428 -10.2136
-10.2062 -10.2049 -10.2044 -10.2002 -10.1969 -10.1965 -10.1949 -10.1864
-10.1799  -1.2891  -1.2275  -1.1084  -1.0174  -0.8808  -0.8211  -0.8020
 -0.7744  -0.7523  -0.7322  -0.6745  -0.6537  -0.6298  -0.6233  -0.5847
 -0.5691  -0.5526  -0.5355  -0.5221  -0.5137  -0.4985  -0.4825  -0.4758
 -0.4608  -0.4580  -0.4463  -0.4432  -0.4365  -0.4343  -0.4150  -0.4125
 -0.4097  -0.3949  -0.3831  -0.3786  -0.3716  -0.3609  -0.3535  -0.3395
 -0.3247  -0.2994  -0.2899  -0.2738  -0.2411  -0.2237

          Ground-State Mulliken Net Atomic Charges

     Atom                 Charge (a.u.)
  ----------------------------------------
      1 C                    -0.351929
      2 C                    -0.110477
      3 C                     0.179393
      4 C                    -0.263388
      5 C                     0.197538
      6 C                    -0.300074
      7 C                     0.551358
      8 F                    -0.226616
      9 F                    -0.247251
     10 C                    -0.231933
     11 C                     0.046579
     12 C                     0.606180
     13 O                    -0.489947
     14 O                    -0.470006
     15 C                    -0.045586
     16 C                    -0.464836
     17 C                    -0.224235
     18 H                     0.147485
     19 H                     0.148038
     20 H                     0.128295
     21 H                     0.131022
     22 H                     0.159742
     23 H                     0.168951
     24 H                     0.169200
     25 H                     0.150898
     26 H                     0.179965
     27 H                     0.151952
     28 H                     0.156330
     29 H                     0.153355
  ----------------------------------------
  Sum of atomic charges =     0.000000

                    Cartesian Multipole Moments
 -----------------------------------------------------------------
    Charge (ESU x 10^10)
                 0.0000
    Dipole Moment (Debye)
         X       1.1619      Y      -2.4121      Z       0.1650
       Tot       2.6824
    Quadrupole Moments (Debye-Ang)
        XX     -83.9219     XY       5.1678     YY     -95.2885
        XZ      -0.6681     YZ      -0.0944     ZZ     -97.9295

 Total job time:  85.49s(wall), 80.02s(cpu)
        *  Thank you very much for using Q-Chem.  Have a nice day.  *
