 Q-Chem 5.2, Q-Chem, Inc., Pleasanton, CA (2019)
 Q-Chem 5.2.1 for Intel X86 EM64T Linux

User input:
--------------------------------------------------------------
$molecule
0 1
C        -4.17089812070000    0.06695975700000    0.20433925520000
C        -3.32075571780000   -0.94151968460000    0.05704783690000
C        -1.87441370940000   -0.76921184790000   -0.01781528500000
C        -1.03256740130000   -1.87059294470000   -0.20656432910000
C         0.33276354420000   -1.66689989990000   -0.20288304430000
C         0.83854016210000   -0.38052784270000   -0.04128547210000
C         2.31982870290000   -0.21965921850000    0.05765610950000
N         2.73122993460000    0.43511775810000    1.17302359240000
O         3.09544768090000   -0.69876708100000   -0.74026897760000
C        -0.08274762580000    0.67815320360000    0.04366567090000
C         0.29888105130000    2.09201411740000    0.04907992470000
C         1.35248415610000    2.59597789920000   -0.57841669450000
N        -1.38969568630000    0.46327056750000    0.08933807810000
H        -5.23511646900000   -0.08545561560000    0.25656172700000
H        -3.80771659740000    1.07768363530000    0.27445123740000
H        -3.67213897670000   -1.96217329740000   -0.01843547250000
H        -1.44603188460000   -2.85921252830000   -0.33393579660000
H         1.02270725860000   -2.49112428000000   -0.31144854670000
H         2.08267307240000    0.90152773170000    1.78124877080000
H         3.71614850520000    0.60415969630000    1.29519425500000
H        -0.41391069580000    2.73883776720000    0.54256264210000
H         2.04124469340000    1.97859788270000   -1.13103086970000
H         1.55455984020000    3.65370646350000   -0.57777183740000
$end

$rem
BASIS = 6-31G*
GUI = 2
METHOD = B3LYP
PRINT_ORBITALS false
MOLDEN_FORMAT false
--------------------------------------------------------------

             Standard Nuclear Orientation (Angstroms)
    I     Atom           X                Y                Z
 ----------------------------------------------------------------
    1      C       4.0721754620    -0.8060911149     0.1415773385
    2      C       3.4182839230     0.3450693433     0.0481797693
    3      C       1.9643594160     0.4407363288    -0.0162487873
    4      C       1.3352874350     1.6835148774    -0.1471749125
    5      C      -0.0443200240     1.7301998506    -0.1354799756
    6      C      -0.7741835389     0.5506485602    -0.0230751931
    7      C      -2.2596553310     0.6561490928     0.0870478495
    8      N      -2.7781295602     0.0376643107     1.1782350619
    9      O      -2.9390057005     1.3026482851    -0.6799824350
   10      C      -0.0596929264    -0.6599329345     0.0050148760
   11      C      -0.6912452167    -1.9802554591    -0.0456070615
   12      C      -1.8214287653    -2.2569138858    -0.6811825993
   13      N       1.2647394612    -0.6872573571     0.0438217777
   14      H       5.1466065605    -0.8511729731     0.1872256219
   15      H       3.5321138218    -1.7365456641     0.1726743438
   16      H       3.9485195955     1.2876528360     0.0122880883
   17      H       1.9205461413     2.5857018856    -0.2370409225
   18      H      -0.5738990535     2.6696298959    -0.2000699711
   19      H      -2.2222487614    -0.5649411476     1.7578602285
   20      H      -3.7768396869     0.0443128201     1.3051181520
   21      H      -0.1053882360    -2.7666352829     0.4108537495
   22      H      -2.3892436909    -1.5011805476    -1.1982753578
   23      H      -2.2118729961    -3.2596047320    -0.7234801549
 ----------------------------------------------------------------

    9    -571.7792400212      4.80e-06  Convergence criterion met
 Total energy in the final basis set =     -571.7792400212

                    Orbital Energies (a.u.)
 --------------------------------------------------------------

 Alpha MOs
 -- Occupied --
-19.1123 -14.3547 -14.3277 -10.2903 -10.2373 -10.2319 -10.2101 -10.2056
-10.1996 -10.1950 -10.1913 -10.1904 -10.1835  -1.0393  -0.9580  -0.9080
 -0.8223  -0.8139  -0.7762  -0.7400  -0.6681  -0.6495  -0.5986  -0.5894
 -0.5611  -0.5472  -0.5166  -0.5053  -0.4727  -0.4688  -0.4465  -0.4335
 -0.4187  -0.4115  -0.4073  -0.4007  -0.3920  -0.3656  -0.3531  -0.3235
 -0.3034  -0.2737  -0.2681  -0.2586  -0.2469  -0.2293

          Ground-State Mulliken Net Atomic Charges

     Atom                 Charge (a.u.)
  ----------------------------------------
      1 C                    -0.328482
      2 C                    -0.108615
      3 C                     0.326978
      4 C                    -0.188664
      5 C                    -0.118800
      6 C                     0.031338
      7 C                     0.479963
      8 N                    -0.720499
      9 O                    -0.500235
     10 C                     0.255495
     11 C                    -0.124944
     12 C                    -0.337607
     13 N                    -0.566229
     14 H                     0.144410
     15 H                     0.170301
     16 H                     0.127965
     17 H                     0.140260
     18 H                     0.163600
     19 H                     0.338957
     20 H                     0.339262
     21 H                     0.147663
     22 H                     0.176552
     23 H                     0.151333
  ----------------------------------------
  Sum of atomic charges =     0.000000

                    Cartesian Multipole Moments
 -----------------------------------------------------------------
    Charge (ESU x 10^10)
                 0.0000
    Dipole Moment (Debye)
         X       0.6731      Y      -0.9975      Z       2.3809
       Tot       2.6678
    Quadrupole Moments (Debye-Ang)
        XX     -70.9040     XY      10.5336     YY     -70.3332
        XZ      -7.1107     YZ       0.0917     ZZ     -75.6536

 Total job time:  33.01s(wall), 32.53s(cpu)
        *  Thank you very much for using Q-Chem.  Have a nice day.  *
