 Q-Chem 5.2, Q-Chem, Inc., Pleasanton, CA (2019)
 Q-Chem 5.2.1 for Intel X86 EM64T Linux

User input:
--------------------------------------------------------------
$molecule
0 1
C         4.12818989700000   -0.68876118490000    0.14079234880000
C         3.15042334320000    0.15194034340000   -0.18256681780000
C         1.74203012980000   -0.13126945430000   -0.07299544120000
N         1.23697080370000   -1.38422435650000    0.02345729330000
N        -0.09818093720000   -1.41272683860000    0.03428312740000
C        -0.48394488420000   -0.14867746950000   -0.05138635430000
N        -1.79412323340000    0.27117205370000   -0.05034591310000
C        -2.96474529530000   -0.44059552660000    0.02190801840000
C        -2.83527707200000   -1.93058076840000    0.11972843320000
O        -4.01817945670000    0.15769382310000    0.00322112750000
C         0.63911620100000    0.72435779820000   -0.12142088880000
C         0.59788350110000    2.16726981970000   -0.20520410550000
C         1.51723979640000    2.99202708470000    0.28251054450000
H         5.16165626610000   -0.41771960850000    0.01742345420000
H         3.94156434720000   -1.66549617930000    0.55554476900000
H         3.38285323700000    1.13420428350000   -0.56977334290000
H         1.74826831230000   -2.25065256280000    0.03919780810000
H        -1.92287967620000    1.27454961830000   -0.10635138530000
H        -2.29371582690000   -2.31122559280000   -0.74196205590000
H        -3.82685052610000   -2.37116172240000    0.16766863290000
H        -2.26238261690000   -2.19262922280000    1.00510983100000
H        -0.27416858100000    2.57864570710000   -0.70135197930000
H         2.37706363200000    2.63531229100000    0.82294183060000
H         1.42581019990000    4.05908063770000    0.17556411510000
$end

$rem
BASIS = 6-31G*
GUI = 2
METHOD = B3LYP
PRINT_ORBITALS false
MOLDEN_FORMAT false
--------------------------------------------------------------

             Standard Nuclear Orientation (Angstroms)
    I     Atom           X                Y                Z
 ----------------------------------------------------------------
    1      C       3.9145754663    -1.3713857690     0.1145468720
    2      C       3.0920098704    -0.3735744980    -0.1938784060
    3      C       1.6561275678    -0.4172720355    -0.0837981724
    4      N       0.9474564125    -1.5686149154    -0.0033071399
    5      N      -0.3734352282    -1.3721728384     0.0113743237
    6      C      -0.5410018370    -0.0601344933    -0.0553392668
    7      N      -1.7618189259     0.5741559756    -0.0442375628
    8      C      -3.0354850986     0.0685791132     0.0217643135
    9      C      -3.1585768175    -1.4231919771     0.0982778272
   10      O      -3.9732021059     0.8358219139     0.0148233297
   11      C       0.7129277104     0.6123652770    -0.1167099833
   12      C       0.9150838523     2.0426889502    -0.1801288218
   13      C       1.9605258043     2.6938801414     0.3161647216
   14      H       4.9788212117    -1.2763877897    -0.0083048015
   15      H       3.5665366181    -2.3086343121     0.5161611694
   16      H       3.4861517458     0.5610198586    -0.5680181757
   17      H       1.3056370608    -2.5088667462    -0.0013422972
   18      H      -1.7198970264     1.5855903782    -0.0857631593
   19      H      -2.6894860186    -1.8771388898    -0.7703852757
   20      H      -4.2101227367    -1.6912610846     0.1431987371
   21      H      -2.6372696886    -1.7905948918     0.9780685093
   22      H       0.1243264516     2.6020320708    -0.6676795104
   23      H       2.7484644833     2.1898350922     0.8487993749
   24      H       2.0499198273     3.7625251967     0.2244769403
 ----------------------------------------------------------------

    9    -589.0120960595      6.45e-06  Convergence criterion met
 Total energy in the final basis set =     -589.0120960595

                    Orbital Energies (a.u.)
 --------------------------------------------------------------

 Alpha MOs
 -- Occupied --
-19.1079 -14.4163 -14.3712 -14.3522 -10.2851 -10.2555 -10.2388 -10.2129
-10.2056 -10.2010 -10.1979 -10.1882 -10.1725  -1.0655  -1.0371  -0.9428
 -0.8449  -0.8226  -0.7809  -0.7519  -0.7359  -0.6626  -0.6362  -0.6185
 -0.5828  -0.5598  -0.5212  -0.5061  -0.4837  -0.4755  -0.4635  -0.4569
 -0.4412  -0.4355  -0.4172  -0.4012  -0.3940  -0.3852  -0.3740  -0.3681
 -0.3303  -0.3211  -0.2993  -0.2877  -0.2472  -0.2256  -0.2162

          Ground-State Mulliken Net Atomic Charges

     Atom                 Charge (a.u.)
  ----------------------------------------
      1 C                    -0.359918
      2 C                    -0.087609
      3 C                     0.352863
      4 N                    -0.503311
      5 N                    -0.373332
      6 C                     0.528119
      7 N                    -0.686015
      8 C                     0.558473
      9 C                    -0.513390
     10 O                    -0.491410
     11 C                    -0.041231
     12 C                    -0.127904
     13 C                    -0.351978
     14 H                     0.156855
     15 H                     0.135522
     16 H                     0.154416
     17 H                     0.344067
     18 H                     0.337597
     19 H                     0.184173
     20 H                     0.170351
     21 H                     0.184713
     22 H                     0.132155
     23 H                     0.149947
     24 H                     0.146847
  ----------------------------------------
  Sum of atomic charges =     0.000000

                    Cartesian Multipole Moments
 -----------------------------------------------------------------
    Charge (ESU x 10^10)
                -0.0000
    Dipole Moment (Debye)
         X       4.9552      Y      -1.3905      Z      -0.1627
       Tot       5.1492
    Quadrupole Moments (Debye-Ang)
        XX     -85.1831     XY       2.2575     YY     -67.0016
        XZ       0.5950     YZ      -1.2772     ZZ     -77.7152

 Total job time:  31.90s(wall), 31.80s(cpu)
        *  Thank you very much for using Q-Chem.  Have a nice day.  *
