 Q-Chem 5.2, Q-Chem, Inc., Pleasanton, CA (2019)
 Q-Chem 5.2.1 for Intel X86 EM64T Linux

User input:
--------------------------------------------------------------
$molecule
0 1
C        -3.24105901750000    1.82697703700000   -0.37850007220000
C        -2.04566838040000    1.96136090320000    0.18086788340000
C        -0.97587847410000    0.98410893030000    0.12929937780000
C         0.40326672600000    1.29449545990000    0.12553268040000
C         1.07964371360000    0.09824658750000    0.03399230050000
C         2.51373524360000   -0.22826567410000   -0.02714277810000
O         2.94317957340000   -1.34335676320000   -0.12321518600000
O         3.34265320080000    0.83676668110000    0.03255416590000
O         0.19675638390000   -0.91976353120000   -0.00119525140000
C        -1.04136632330000   -0.40547879300000    0.05816106910000
C        -2.17232815510000   -1.29640828830000    0.11474843390000
C        -2.08136578400000   -2.60789770450000   -0.09103284950000
H        -3.98232491180000    2.60392647810000   -0.30574236660000
H        -3.51396358800000    0.95454845940000   -0.94661486140000
H        -1.79138654070000    2.88028375990000    0.69445121120000
H         0.81310412480000    2.28561314690000    0.16869383920000
H         2.86997838750000    1.67473931340000    0.10893011350000
H        -3.11438101260000   -0.82792975110000    0.35873846190000
H        -1.14062106480000   -3.06967602090000   -0.33782349600000
H        -2.94139789000000   -3.24995068700000   -0.02148665700000
$end

$rem
BASIS = 6-31G*
GUI = 2
METHOD = B3LYP
PRINT_ORBITALS false
MOLDEN_FORMAT false
--------------------------------------------------------------

             Standard Nuclear Orientation (Angstroms)
    I     Atom           X                Y                Z
 ----------------------------------------------------------------
    1      C       3.3129051539     1.5269486977     0.3737446715
    2      C       2.1271450480     1.7733271212    -0.1677171943
    3      C       0.9793288030     0.8886728286    -0.1225970962
    4      C      -0.3685856789     1.3138449609    -0.0951986256
    5      C      -1.1424624882     0.1770674701    -0.0195120643
    6      C      -2.5982464867    -0.0288555990     0.0529786980
    7      O      -3.1191886475    -1.1056544003     0.1317447025
    8      O      -3.3349361655     1.1031728514     0.0253648025
    9      O      -0.3482960433    -0.9121345176    -0.0161223231
   10      C       0.9280931233    -0.5026972784    -0.0805555866
   11      C       1.9791666464    -1.4842139741    -0.1694464490
   12      C       1.7800922513    -2.7874876586     0.0107525150
   13      H       4.1162577043     2.2401491606     0.3074949671
   14      H       3.5173408394     0.6227396876     0.9205307888
   15      H       1.9457768465     2.7211255422    -0.6592759740
   16      H      -0.6937723192     2.3366249469    -0.1130479330
   17      H      -2.7940909576     1.8998418199    -0.0398878814
   18      H       2.9546996780    -1.0915634558    -0.4156734472
   19      H       0.8064582377    -3.1736330106     0.2598991348
   20      H       2.5820785879    -3.4979955688    -0.0826303209
 ----------------------------------------------------------------

    9    -573.3856661879      8.51e-06  Convergence criterion met
 Total energy in the final basis set =     -573.3856661879

                    Orbital Energies (a.u.)
 --------------------------------------------------------------

 Alpha MOs
 -- Occupied --
-19.2377 -19.1967 -19.1312 -10.3238 -10.2658 -10.2636 -10.2176 -10.2140
-10.2110 -10.2090 -10.1963 -10.1963  -1.1466  -1.1032  -1.0214  -0.8485
 -0.8236  -0.7793  -0.7497  -0.6625  -0.6416  -0.6245  -0.6078  -0.5734
 -0.5366  -0.4929  -0.4892  -0.4853  -0.4679  -0.4457  -0.4375  -0.4329
 -0.4195  -0.4015  -0.3898  -0.3794  -0.3702  -0.3345  -0.3194  -0.3110
 -0.2767  -0.2725  -0.2215

          Ground-State Mulliken Net Atomic Charges

     Atom                 Charge (a.u.)
  ----------------------------------------
      1 C                    -0.347389
      2 C                    -0.111657
      3 C                     0.060862
      4 C                    -0.249526
      5 C                     0.258500
      6 C                     0.549770
      7 O                    -0.442796
      8 O                    -0.579611
      9 O                    -0.456349
     10 C                     0.293265
     11 C                    -0.120307
     12 C                    -0.344047
     13 H                     0.150643
     14 H                     0.154217
     15 H                     0.138652
     16 H                     0.146649
     17 H                     0.416109
     18 H                     0.152480
     19 H                     0.176758
     20 H                     0.153776
  ----------------------------------------
  Sum of atomic charges =     0.000000

                    Cartesian Multipole Moments
 -----------------------------------------------------------------
    Charge (ESU x 10^10)
                -0.0000
    Dipole Moment (Debye)
         X       4.2951      Y       3.2038      Z      -0.3251
       Tot       5.3683
    Quadrupole Moments (Debye-Ang)
        XX     -77.1233     XY      -8.7563     YY     -59.9434
        XZ       0.9178     YZ      -1.1614     ZZ     -69.9543

 Total job time:  23.80s(wall), 23.71s(cpu)
        *  Thank you very much for using Q-Chem.  Have a nice day.  *
