 Q-Chem 5.2, Q-Chem, Inc., Pleasanton, CA (2019)
 Q-Chem 5.2.1 for Intel X86 EM64T Linux

User input:
--------------------------------------------------------------
$molecule
0 1
C         3.77435987330000    1.53761925640000   -0.05384155910000
C         3.33688345590000    0.28547151430000    0.00311483990000
C         1.94649075700000   -0.14798157660000    0.03590068860000
C         0.85420075330000    0.72224041820000   -0.00119968580000
C        -0.43475076570000    0.20726932400000    0.03868519560000
C        -1.57595542650000    1.17351977770000    0.13034954740000
O        -2.36378590630000    1.19634013910000    1.02967979760000
O        -1.62131556440000    2.08569934160000   -0.86453809030000
C        -0.61669347270000   -1.18201705960000    0.09494525610000
C        -1.91812049360000   -1.83417251110000    0.06671326550000
C        -2.98158256250000   -1.39339474690000   -0.59171453250000
C         0.55026403300000   -1.95466177420000    0.14434618870000
N         1.76817584010000   -1.46873827840000    0.11280538040000
H         4.82742623720000    1.75864577310000   -0.07258421610000
H         3.11666615380000    2.39021229010000   -0.07946299850000
H         4.03704657430000   -0.53783503700000    0.03244023720000
H         1.00784912910000    1.79119175560000   -0.02034183340000
H        -0.91362710550000    1.96159210420000   -1.51164142570000
H        -1.96268372080000   -2.77961035520000    0.59176614890000
H        -2.97441269910000   -0.48167907670000   -1.16531972880000
H        -3.90911670380000   -1.93861021130000   -0.58565453810000
H         0.48102581920000   -3.03378551290000    0.20306931630000
$end

$rem
BASIS = 6-31G*
GUI = 2
METHOD = B3LYP
PRINT_ORBITALS false
MOLDEN_FORMAT false
--------------------------------------------------------------

             Standard Nuclear Orientation (Angstroms)
    I     Atom           X                Y                Z
 ----------------------------------------------------------------
    1      C       3.9215484186    -1.0471998688     0.0392244048
    2      C       3.3267217134     0.1396678148     0.0337556101
    3      C       1.8925288601     0.3920703526    -0.0053873255
    4      C       0.9214578148    -0.6119753548    -0.0313382914
    5      C      -0.4225937749    -0.2654505845    -0.0716862483
    6      C      -1.4280566835    -1.3644518210    -0.2317830698
    7      O      -2.1943961878    -1.4432606013    -1.1463898012
    8      O      -1.3682845143    -2.3234979654     0.7172102343
    9      C      -0.7817826506     1.0900280499    -0.0649023053
   10      C      -2.1568304852     1.5674202677    -0.0308994838
   11      C      -3.1630113815     0.9613566922     0.5847714681
   12      C       0.2760949824     2.0076313282    -0.0544493381
   13      N       1.5460651801     1.6811712958    -0.0224308969
   14      H       4.9940074772    -1.1318199302     0.0679261099
   15      H       3.3792649331    -1.9774000467     0.0111420559
   16      H       3.9149481890     1.0465000605     0.0575661201
   17      H       1.2116866875    -1.6519530234    -0.0604047171
   18      H      -0.6911685186    -2.1420490835     1.3832121259
   19      H      -2.3162616675     2.5243674335    -0.5108504694
   20      H      -3.0456551603     0.0305802509     1.1140941722
   21      H      -4.1530623437     1.3825591890     0.5867101359
   22      H       0.0687688781     3.0705033548    -0.0627752451
 ----------------------------------------------------------------

    9    -591.6343861780      6.53e-06  Convergence criterion met
 Total energy in the final basis set =     -591.6343861780

                    Orbital Energies (a.u.)
 --------------------------------------------------------------

 Alpha MOs
 -- Occupied --
-19.2064 -19.1423 -14.3393 -10.3297 -10.2423 -10.2337 -10.2321 -10.2217
-10.2185 -10.2034 -10.2003 -10.1972 -10.1940  -1.1141  -1.0321  -0.9661
 -0.8475  -0.8197  -0.7865  -0.7420  -0.6817  -0.6655  -0.6308  -0.5982
 -0.5905  -0.5414  -0.5215  -0.4973  -0.4748  -0.4654  -0.4582  -0.4478
 -0.4388  -0.4367  -0.4201  -0.4063  -0.3929  -0.3721  -0.3654  -0.3372
 -0.3284  -0.3050  -0.2856  -0.2804  -0.2627  -0.2345

          Ground-State Mulliken Net Atomic Charges

     Atom                 Charge (a.u.)
  ----------------------------------------
      1 C                    -0.346729
      2 C                    -0.088126
      3 C                     0.303776
      4 C                    -0.226135
      5 C                     0.007860
      6 C                     0.526709
      7 O                    -0.411874
      8 O                    -0.566331
      9 C                     0.110751
     10 C                    -0.117259
     11 C                    -0.329216
     12 C                    -0.009941
     13 N                    -0.474876
     14 H                     0.156472
     15 H                     0.145006
     16 H                     0.151930
     17 H                     0.147854
     18 H                     0.415803
     19 H                     0.144653
     20 H                     0.155026
     21 H                     0.156513
     22 H                     0.148132
  ----------------------------------------
  Sum of atomic charges =     0.000000

                    Cartesian Multipole Moments
 -----------------------------------------------------------------
    Charge (ESU x 10^10)
                 0.0000
    Dipole Moment (Debye)
         X       1.6381      Y       0.3445      Z       2.4017
       Tot       2.9274
    Quadrupole Moments (Debye-Ang)
        XX     -73.9257     XY     -12.4110     YY     -74.0711
        XZ      -4.1771     YZ      -4.9397     ZZ     -76.2315

 Total job time:  31.05s(wall), 30.95s(cpu)
        *  Thank you very much for using Q-Chem.  Have a nice day.  *
