 Q-Chem 5.2, Q-Chem, Inc., Pleasanton, CA (2019)
 Q-Chem 5.2.1 for Intel X86 EM64T Linux

User input:
--------------------------------------------------------------
$molecule
0 1
C        -4.04673904260000   -1.25213141170000   -0.00325111850000
C        -2.81278036720000   -1.74841032630000    0.00013541510000
C        -1.61668696970000   -0.94637176770000    0.00088420670000
C        -0.29868999490000   -1.32866102000000    0.00107125140000
C         0.46412758290000   -0.13555868540000    0.00088755550000
C         1.92102287930000   -0.01754082140000   -0.00074541270000
O         2.54278230340000    1.01905992600000   -0.00477234950000
O         2.51153859890000   -1.22543755290000    0.00281766510000
C         3.92950019660000   -1.21678065640000   -0.00031663980000
C        -0.45570236500000    0.90773370120000    0.00087590680000
C        -0.23249717280000    2.32771215540000    0.00138360690000
C        -1.21079670670000    3.23090345010000    0.00105989750000
O        -1.70176108640000    0.40711665220000    0.00083742200000
H        -4.91239699460000   -1.89013216740000   -0.00391184170000
H        -4.22114851490000   -0.18986941180000   -0.00547120860000
H        -2.63672188630000   -2.81475116490000    0.00220976000000
H         0.08593201260000   -2.32712651750000    0.00101505300000
H         4.24048117920000   -2.25790535610000    0.02912494400000
H         4.30854987790000   -0.67732656300000    0.87047094660000
H         4.30462548440000   -0.72954985560000   -0.90307257180000
H         0.80939072090000    2.61170222070000    0.00181880490000
H        -2.24711378760000    2.93705703360000    0.00026835390000
H        -1.00165497900000    4.28574460970000    0.00163216050000
$end

$rem
BASIS = 6-31G*
GUI = 2
METHOD = B3LYP
PRINT_ORBITALS false
MOLDEN_FORMAT false
--------------------------------------------------------------

             Standard Nuclear Orientation (Angstroms)
    I     Atom           X                Y                Z
 ----------------------------------------------------------------
    1      C       4.0249598298     1.2952725319    -0.0030907344
    2      C       2.7851000938     1.7766192593     0.0002864558
    3      C       1.5987757579     0.9602003033     0.0009821984
    4      C       0.2762599556     1.3265513046     0.0011541962
    5      C      -0.4720993292     0.1243274509     0.0009132985
    6      C      -1.9274637649    -0.0112688771    -0.0007548372
    7      O      -2.5366643252    -1.0552996107    -0.0048305968
    8      O      -2.5325178301     1.1894112223     0.0028370406
    9      C      -3.9502715392     1.1636379388    -0.0003278506
   10      C       0.4602578493    -0.9077850565     0.0008855280
   11      C       0.2542103843    -2.3303545142     0.0013397744
   12      C       1.2433416445    -3.2216703035     0.0010059957
   13      O       1.7001825066    -0.3921625079     0.0008908249
   14      H       4.8828530015     1.9436767358    -0.0037110914
   15      H       4.2121798886     0.2351934198    -0.0053435199
   16      H       2.5961819114     2.8407570116     0.0023936006
   17      H      -0.1203871449     2.3203010307     0.0011240154
   18      H      -4.2737985652     2.2009317080     0.0291427865
   19      H      -4.3227997427     0.6196173221     0.8704331422
   20      H      -4.3194689078     0.6719454444    -0.9031085003
   21      H      -0.7841733743    -2.6269012001     0.0017429794
   22      H       2.2760360213    -2.9153352211     0.0002466641
   23      H       1.0469488106    -4.2789593055     0.0015376247
 ----------------------------------------------------------------

    9    -612.7146641061      6.91e-06  Convergence criterion met
 Total energy in the final basis set =     -612.7146641061

                    Orbital Energies (a.u.)
 --------------------------------------------------------------

 Alpha MOs
 -- Occupied --
-19.2274 -19.1922 -19.1322 -10.3159 -10.2589 -10.2497 -10.2392 -10.2019
-10.2006 -10.1946 -10.1936 -10.1872 -10.1860  -1.1338  -1.1080  -1.0162
 -0.8261  -0.8230  -0.7833  -0.7392  -0.7177  -0.6399  -0.6320  -0.5965
 -0.5768  -0.5471  -0.5076  -0.4873  -0.4870  -0.4708  -0.4697  -0.4633
 -0.4575  -0.4368  -0.4131  -0.4073  -0.3990  -0.3794  -0.3717  -0.3657
 -0.3570  -0.3255  -0.3017  -0.2958  -0.2756  -0.2744  -0.2037

          Ground-State Mulliken Net Atomic Charges

     Atom                 Charge (a.u.)
  ----------------------------------------
      1 C                    -0.353837
      2 C                    -0.109160
      3 C                     0.328787
      4 C                    -0.230393
      5 C                     0.001343
      6 C                     0.582294
      7 O                    -0.501890
      8 O                    -0.456638
      9 C                    -0.216169
     10 C                     0.301843
     11 C                    -0.114130
     12 C                    -0.346764
     13 O                    -0.491695
     14 H                     0.147855
     15 H                     0.157776
     16 H                     0.143361
     17 H                     0.157995
     18 H                     0.163780
     19 H                     0.169950
     20 H                     0.168819
     21 H                     0.186694
     22 H                     0.157880
     23 H                     0.152297
  ----------------------------------------
  Sum of atomic charges =     0.000000

                    Cartesian Multipole Moments
 -----------------------------------------------------------------
    Charge (ESU x 10^10)
                 0.0000
    Dipole Moment (Debye)
         X       0.2540      Y       1.7307      Z       0.0047
       Tot       1.7492
    Quadrupole Moments (Debye-Ang)
        XX     -65.8594     XY      -5.1536     YY     -68.2413
        XZ      -0.0281     YZ      -0.0126     ZZ     -76.9961

 Total job time:  29.64s(wall), 29.54s(cpu)
        *  Thank you very much for using Q-Chem.  Have a nice day.  *
