 Q-Chem 5.2, Q-Chem, Inc., Pleasanton, CA (2019)
 Q-Chem 5.2.1 for Intel X86 EM64T Linux

User input:
--------------------------------------------------------------
$molecule
0 1
F         6.85417923020000   -0.04128072510000    0.18217630350000
C         5.56362105870000    0.00783189860000   -0.13695702990000
F         5.45116139740000    0.18366859260000   -1.44702171990000
C         4.59342048010000   -0.10694336450000    0.75836052250000
C         3.15563388020000   -0.07112341210000    0.54447030920000
C         2.32347032570000   -0.21143679730000    1.65785868080000
C         0.94971910340000   -0.18637006610000    1.52657710400000
C         0.37667809280000   -0.02009868400000    0.27240396210000
N        -1.04150719140000   -0.00069866020000    0.14795780480000
C        -1.66605450970000    1.23823298320000    0.01935836450000
C        -3.05573270030000    1.38193189140000   -0.01698576170000
S        -4.16379690160000    0.01610316970000    0.19143144870000
C        -3.07267302320000   -1.35810569030000   -0.04488429080000
C        -1.68197720330000   -1.22677186390000   -0.02065812780000
C        -0.92489809300000   -2.38944971280000   -0.17492389490000
C        -1.52365095760000   -3.62605071540000   -0.33833232280000
C        -2.90057929260000   -3.73715634420000   -0.36838604790000
C        -3.66859373850000   -2.59508643630000   -0.22579883560000
C        -3.63982217180000    2.62845770780000   -0.16823353670000
C        -2.86182229000000    3.76899115170000   -0.25978910320000
C        -1.48712335700000    3.64781351380000   -0.19322177610000
C        -0.89961330720000    2.40217691810000   -0.05963699960000
C         1.19376171490000    0.11851164280000   -0.84493397500000
C         2.56737675920000    0.09437538060000   -0.71200269360000
H         4.92518494650000   -0.24437587110000    1.77745483570000
H         2.76216577250000   -0.34015281280000    2.63614568130000
H         0.31230890100000   -0.29692182400000    2.39080535540000
H         0.15204654150000   -2.32580365180000   -0.16245701400000
H        -0.90172229570000   -4.50163227920000   -0.44618600370000
H        -3.37596028820000   -4.69636371510000   -0.49896112060000
H        -4.74655723400000   -2.64897427610000   -0.24023669020000
H        -4.71703119500000    2.69093851170000   -0.19744738370000
H        -3.32809033770000    4.73510575130000   -0.37067880320000
H        -0.85769278060000    4.52307483700000   -0.24599760160000
H         0.17560692030000    2.33411977190000   -0.00625525270000
H         0.74285222220000    0.24501263380000   -1.81808346880000
H         3.17892698840000    0.20278570330000   -1.59221243510000
$end

$rem
BASIS = 6-31G*
GUI = 2
METHOD = B3LYP
PRINT_ORBITALS false
MOLDEN_FORMAT false
--------------------------------------------------------------

             Standard Nuclear Orientation (Angstroms)
    I     Atom           X                Y                Z
 ----------------------------------------------------------------
    1      F      -6.9056638582     0.0351479721     0.1342235860
    2      C      -5.6132043964    -0.0132149124    -0.1772376466
    3      F      -5.4928658269    -0.1896527866    -1.4865212353
    4      C      -4.6484031841     0.1027140711     0.7237479997
    5      C      -3.2093504301     0.0678030184     0.5183927256
    6      C      -2.3838929926     0.2092855439     1.6366147105
    7      C      -1.0093711872     0.1851252207     1.5134818583
    8      C      -0.4287971389     0.0186084817     0.2628106815
    9      N       0.9901134641     0.0001499420     0.1467732295
   10      C       1.6162862623    -1.2384049725     0.0225229322
   11      C       3.0062564425    -1.3811367739    -0.0055176829
   12      S       4.1121021341    -0.0144140890     0.2087403711
   13      C       3.0214261213     1.3588972637    -0.0347513147
   14      C       1.6307043579     1.2265894154    -0.0186903453
   15      C       0.8737307915     2.3886494895    -0.1780449510
   16      C       1.4725670102     3.6255898674    -0.3385536157
   17      C       2.8495703264     3.7376567288    -0.3605129541
   18      C       3.6175336238     2.5962062750    -0.2127827538
   19      C       3.5921115750    -2.6273263361    -0.1526514652
   20      C       2.8154732689    -3.7684589069    -0.2482138634
   21      C       1.4403190416    -3.6482220282    -0.1898500947
   22      C       0.8511485998    -2.4029332952    -0.0603987844
   23      C      -1.2391527303    -0.1211623404    -0.8592724111
   24      C      -2.6135474705    -0.0979315315    -0.7344885896
   25      H      -4.9862927393     0.2404409203     1.7407880863
   26      H      -2.8284638559     0.3381988268     2.6122196900
   27      H      -0.3771673762     0.2965784318     2.3814106865
   28      H      -0.2032235530     2.3242458666    -0.1719209688
   29      H       0.8506694914     4.5006737809    -0.4505463492
   30      H       3.3250384151     4.6971331212    -0.4887738990
   31      H       4.6955253742     2.6508513787    -0.2208665290
   32      H       4.6695185541    -2.6890580477    -0.1754544568
   33      H       3.2830720393    -4.7342999723    -0.3558347899
   34      H       0.8118304059    -4.5239570148    -0.2458928482
   35      H      -0.2244166526    -2.3356112689    -0.0134194674
   36      H      -0.7824000213    -0.2478492632    -1.8296688224
   37      H      -3.2197986567    -0.2072332692    -1.6182466444
 ----------------------------------------------------------------

    9   -1422.5460756290      5.86e-06  Convergence criterion met
 Total energy in the final basis set =    -1422.5460756290

                    Orbital Energies (a.u.)
 --------------------------------------------------------------

 Alpha MOs
 -- Occupied --
-88.8854 -24.7544 -24.7436 -14.3742 -10.3676 -10.2366 -10.2363 -10.2339
-10.2204 -10.2168 -10.2168 -10.2130 -10.2043 -10.2028 -10.2024 -10.2021
-10.1879 -10.1878 -10.1835 -10.1835 -10.1827 -10.1826 -10.1801 -10.1800
 -7.9468  -5.9117  -5.9080  -5.9019  -1.2958  -1.2345  -0.9871  -0.8826
 -0.8640  -0.8582  -0.8159  -0.8004  -0.7677  -0.7645  -0.7532  -0.7499
 -0.7231  -0.6826  -0.6598  -0.6346  -0.6324  -0.6310  -0.6007  -0.5972
 -0.5821  -0.5587  -0.5488  -0.5476  -0.5321  -0.5290  -0.4960  -0.4797
 -0.4785  -0.4687  -0.4621  -0.4593  -0.4504  -0.4494  -0.4414  -0.4375
 -0.4355  -0.4310  -0.4199  -0.4163  -0.4125  -0.3892  -0.3852  -0.3828
 -0.3720  -0.3652  -0.3630  -0.3567  -0.3392  -0.3254  -0.3225  -0.3094
 -0.3029  -0.2729  -0.2564  -0.2542  -0.2337  -0.2192  -0.1711

          Ground-State Mulliken Net Atomic Charges

     Atom                 Charge (a.u.)
  ----------------------------------------
      1 F                    -0.243925
      2 C                     0.549698
      3 F                    -0.231694
      4 C                    -0.302283
      5 C                     0.207565
      6 C                    -0.208636
      7 C                    -0.115529
      8 C                     0.172552
      9 N                    -0.696796
     10 C                     0.340852
     11 C                    -0.124452
     12 S                     0.176412
     13 C                    -0.122597
     14 C                     0.336889
     15 C                    -0.177420
     16 C                    -0.141971
     17 C                    -0.117895
     18 C                    -0.181642
     19 C                    -0.181422
     20 C                    -0.118181
     21 C                    -0.141560
     22 C                    -0.181143
     23 C                    -0.124413
     24 C                    -0.206893
     25 H                     0.163852
     26 H                     0.137727
     27 H                     0.150511
     28 H                     0.147528
     29 H                     0.127784
     30 H                     0.126219
     31 H                     0.139917
     32 H                     0.140036
     33 H                     0.126181
     34 H                     0.127779
     35 H                     0.148100
     36 H                     0.151161
     37 H                     0.147691
  ----------------------------------------
  Sum of atomic charges =     0.000000

                    Cartesian Multipole Moments
 -----------------------------------------------------------------
    Charge (ESU x 10^10)
                 0.0000
    Dipole Moment (Debye)
         X      -2.1259      Y       0.1166      Z       0.5060
       Tot       2.1884
    Quadrupole Moments (Debye-Ang)
        XX    -144.2372     XY      -0.4000     YY    -133.6135
        XZ      -4.4234     YZ       0.7382     ZZ    -140.7351

 Total job time:  121.19s(wall), 120.69s(cpu)
        *  Thank you very much for using Q-Chem.  Have a nice day.  *
