 Q-Chem 5.2, Q-Chem, Inc., Pleasanton, CA (2019)
 Q-Chem 5.2.1 for Intel X86 EM64T Linux

User input:
--------------------------------------------------------------
$molecule
0 1
C         3.77431513190000    0.82381867210000    0.34612676770000
C         3.03310236440000   -0.21909327030000   -0.00910063900000
C         1.57906336590000   -0.27415727440000   -0.07807381500000
C         0.95630393260000   -1.49764673000000   -0.33242771980000
C        -0.41577662290000   -1.58197811590000   -0.39950587120000
C        -1.22969982230000   -0.46491890000000   -0.19777236980000
C        -2.67695807810000   -0.67499156120000   -0.25651973050000
C        -3.58762392030000   -0.13043427630000    0.53839634290000
C        -0.61814077230000    0.77618945780000    0.02691041280000
C        -1.40196956570000    2.04714344480000    0.17143606150000
C         0.76551007150000    0.84541502000000    0.08021493550000
H         4.84902254010000    0.76444519350000    0.37045711440000
H         3.34996156330000    1.77140209790000    0.63064601850000
H         3.52837814990000   -1.14720826690000   -0.26980024680000
H         1.55795972420000   -2.38356564580000   -0.47941766990000
H        -0.88317206510000   -2.53711107810000   -0.59585472880000
H        -2.99326775260000   -1.39874034390000   -0.99952247660000
H        -3.33082560710000    0.54776790910000    1.33294763370000
H        -4.63289208450000   -0.37216666220000    0.44033521610000
H        -2.34040215830000    1.99384611640000   -0.37503714820000
H        -0.82196657760000    2.88887696670000   -0.20220938660000
H        -1.62743061430000    2.24034951180000    1.22037097510000
H         1.22193183260000    1.81079215620000    0.24170020660000
$end

$rem
BASIS = 6-31G*
GUI = 2
METHOD = B3LYP
PRINT_ORBITALS false
MOLDEN_FORMAT false
--------------------------------------------------------------

             Standard Nuclear Orientation (Angstroms)
    I     Atom           X                Y                Z
 ----------------------------------------------------------------
    1      C       3.8058131397    -0.7532376586    -0.2137613214
    2      C       3.0391162538     0.3201873346    -0.0615021152
    3      C       1.5844940704     0.3514278603     0.0100316930
    4      C       0.9309356620     1.5851327749     0.0269213096
    5      C      -0.4425397598     1.6467386642     0.0900583983
    6      C      -1.2276913012     0.4918711959     0.1184636734
    7      C      -2.6796783244     0.6732542055     0.1496425564
    8      C      -3.5796213238    -0.0386445717    -0.5144727990
    9      C      -0.5847155268    -0.7535887665     0.1342248837
   10      C      -1.3354344978    -2.0474078636     0.2484721951
   11      C       0.7999962246    -0.7974052240     0.0815305600
   12      H       4.8784433465    -0.6730092953    -0.2600326739
   13      H       3.4052021422    -1.7484212800    -0.3035493632
   14      H       3.5110184951     1.2933964102     0.0080119562
   15      H       1.5097239045     2.4974039228    -0.0079152438
   16      H      -0.9339966967     2.6098810680     0.1008814305
   17      H      -3.0112581579     1.5201245117     0.7402208237
   18      H      -3.3089918756    -0.8524156201    -1.1638969394
   19      H      -4.6304022467     0.1914737534    -0.4549658692
   20      H      -2.2721983323    -1.9117525514     0.7834492597
   21      H      -0.7315494942    -2.7851917457     0.7733793818
   22      H      -1.5609672595    -2.4474046874    -0.7402457809
   23      H       1.2809284750    -1.7640521921     0.1070088149
 ----------------------------------------------------------------

    8    -426.3584445769      6.11e-06  Convergence criterion met
 Total energy in the final basis set =     -426.3584445769

                    Orbital Energies (a.u.)
 --------------------------------------------------------------

 Alpha MOs
 -- Occupied --
-10.1925 -10.1901 -10.1900 -10.1889 -10.1873 -10.1827 -10.1813 -10.1794
-10.1790 -10.1771 -10.1751  -0.8661  -0.8073  -0.7695  -0.7640  -0.7145
 -0.6863  -0.6290  -0.5972  -0.5639  -0.5493  -0.5002  -0.4733  -0.4664
 -0.4383  -0.4339  -0.4210  -0.4157  -0.4027  -0.3890  -0.3773  -0.3622
 -0.3565  -0.3345  -0.3303  -0.3052  -0.2657  -0.2420  -0.2107

          Ground-State Mulliken Net Atomic Charges

     Atom                 Charge (a.u.)
  ----------------------------------------
      1 C                    -0.351793
      2 C                    -0.116592
      3 C                     0.190624
      4 C                    -0.200189
      5 C                    -0.184583
      6 C                     0.101484
      7 C                    -0.139465
      8 C                    -0.335623
      9 C                     0.135035
     10 C                    -0.535679
     11 C                    -0.252506
     12 H                     0.142913
     13 H                     0.142346
     14 H                     0.125778
     15 H                     0.125109
     16 H                     0.125583
     17 H                     0.134319
     18 H                     0.147921
     19 H                     0.142275
     20 H                     0.168714
     21 H                     0.154042
     22 H                     0.161740
     23 H                     0.118545
  ----------------------------------------
  Sum of atomic charges =     0.000000

                    Cartesian Multipole Moments
 -----------------------------------------------------------------
    Charge (ESU x 10^10)
                 0.0000
    Dipole Moment (Debye)
         X      -0.2921      Y      -0.0953      Z       0.0159
       Tot       0.3077
    Quadrupole Moments (Debye-Ang)
        XX     -60.4322     XY       0.0656     YY     -60.1182
        XZ      -0.1412     YZ       1.3454     ZZ     -69.1155

 Total job time:  22.96s(wall), 22.88s(cpu)
        *  Thank you very much for using Q-Chem.  Have a nice day.  *
