 Q-Chem 5.4, Q-Chem, Inc., Pleasanton, CA (2021)
 Q-Chem 5.4.2 for Intel X86 EM64T Linux

User input:
--------------------------------------------------------------
$molecule
0 1
C            1.88979867210000        2.08550235170000       -1.12557039210000
C            1.04446134270000        2.14154762150000       -0.10787092260000
C           -0.15208430280000        1.30619043270000        0.03098862560000
C           -1.34963689760000        1.92424926660000        0.38235652060000
C           -2.54016404500000        1.22573479940000        0.42984304930000
C           -2.58469006150000       -0.12906251290000        0.12915818980000
C           -3.85230303830000       -0.92253953770000        0.15444155160000
C           -1.38036015590000       -0.73943846670000       -0.19192648790000
F           -1.38886861040000       -2.06726860250000       -0.45893440240000
C           -0.15907315760000       -0.07138362160000       -0.23248683530000
C            1.04025576080000       -0.86579956960000       -0.51082243890000
C            2.16913888660000       -0.79881770570000        0.17131124480000
F            2.43604007040000        0.00998873280000        1.18923025450000
F            3.23249670920000       -1.55875043040000       -0.07573594570000
H            2.72971445070000        2.75440309710000       -1.19801485430000
H            1.77078240520000        1.37693541390000       -1.92875070890000
H            1.17184373440000        2.89234192470000        0.66099766740000
H           -1.34312159790000        2.98179337200000        0.60063313970000
H           -3.45262432220000        1.73625330820000        0.69892872950000
H           -4.69185713000000       -0.29781087980000        0.44536931270000
H           -3.76460399350000       -1.75092156230000        0.85631975810000
H           -4.04995146290000       -1.34791640320000       -0.82880678530000
H            0.96770603780000       -1.63025006460000       -1.27024390050000
$end

$rem
BASIS = 6-31G*
GUI = 2
METHOD = B3LYP
PRINT_ORBITALS false
MOLDEN_FORMAT false
$end
--------------------------------------------------------------

             Standard Nuclear Orientation (Angstroms)
    I     Atom           X                Y                Z
 ----------------------------------------------------------------
    1      C       2.0668145574     1.9243764175    -1.1211714965
    2      C       1.2015369639     2.0423915968    -0.1257742961
    3      C      -0.0302903030     1.2590073574     0.0074015538
    4      C      -1.2098337651     1.9333828358     0.3131518968
    5      C      -2.4281061896     1.2838594140     0.3514134208
    6      C      -2.5199328151    -0.0761004976     0.0869391910
    7      C      -3.8185028160    -0.8180709230     0.1037777413
    8      C      -1.3339986532    -0.7422121329    -0.1885969219
    9      F      -1.3895311844    -2.0757006809    -0.4192978541
   10      C      -0.0863737047    -0.1241265519    -0.2183719576
   11      C       1.0862375446    -0.9726562047    -0.4462700650
   12      C       2.2011395862    -0.9308618194     0.2604241485
   13      F       2.4770156729    -0.1047114829     1.2618886828
   14      F       3.2385926782    -1.7387155252     0.0596172983
   15      H       2.9342280479     2.5574057424    -1.1919007901
   16      H       1.9378059258     1.1986049174    -1.9072650666
   17      H       1.3413690888     2.8090412998     0.6250735431
   18      H      -1.1659934923     2.9956027769     0.5025020849
   19      H      -3.3252925197     1.8372798087     0.5846569940
   20      H      -4.6387890866    -0.1528243483     0.3574573819
   21      H      -3.7799290469    -1.6290770990     0.8299471187
   22      H      -4.0106558191    -1.2629852340    -0.8718841616
   23      H       1.0004199687    -1.7548356144    -1.1859995377
 ----------------------------------------------------------------

    9    -724.0571393985      3.73e-06  Convergence criterion met
 Total energy in the final basis set =     -724.0571393985

                    Orbital Energies (a.u.)
 --------------------------------------------------------------

 Alpha MOs
 -- Occupied --
-24.7344 -24.7309 -24.7088 -10.3518 -10.2676 -10.2092 -10.2022 -10.2016
-10.1982 -10.1930 -10.1913 -10.1888 -10.1867 -10.1797  -1.2788  -1.2190
 -1.2188  -0.8783  -0.8178  -0.7940  -0.7547  -0.7408  -0.6913  -0.6478
 -0.6113  -0.6082  -0.5759  -0.5692  -0.5274  -0.5159  -0.5117  -0.4980
 -0.4716  -0.4664  -0.4597  -0.4378  -0.4352  -0.4293  -0.4243  -0.4178
 -0.4081  -0.4049  -0.3938  -0.3752  -0.3604  -0.3583  -0.3415  -0.2848
 -0.2840  -0.2335  -0.2200

          Ground-State Mulliken Net Atomic Charges

     Atom                 Charge (a.u.)
  ----------------------------------------
      1 C                    -0.328685
      2 C                    -0.142505
      3 C                     0.107155
      4 C                    -0.180827
      5 C                    -0.179627
      6 C                     0.104902
      7 C                    -0.521067
      8 C                     0.262853
      9 F                    -0.288385
     10 C                     0.034745
     11 C                    -0.337662
     12 C                     0.584012
     13 F                    -0.233971
     14 F                    -0.246616
     15 H                     0.144615
     16 H                     0.151211
     17 H                     0.139031
     18 H                     0.129439
     19 H                     0.129465
     20 H                     0.155711
     21 H                     0.172341
     22 H                     0.171328
     23 H                     0.172538
  ----------------------------------------
  Sum of atomic charges =     0.000000

                    Cartesian Multipole Moments
 -----------------------------------------------------------------
    Charge (ESU x 10^10)
                 0.0000
    Dipole Moment (Debye)
         X      -1.2867      Y       1.0894      Z      -0.2570
       Tot       1.7054
    Quadrupole Moments (Debye-Ang)
        XX     -73.9655     XY       0.7721     YY     -76.3811
        XZ      -2.6483     YZ       1.8534     ZZ     -78.2366

 Total job time:  61.94s(wall), 58.33s(cpu)
        *  Thank you very much for using Q-Chem.  Have a nice day.  *
