 Q-Chem 5.2, Q-Chem, Inc., Pleasanton, CA (2019)
 Q-Chem 5.2.1 for Intel X86 EM64T Linux

User input:
--------------------------------------------------------------
$molecule
0 1
C        -4.47845457780000   -0.56443771450000   -0.04520004060000
C        -3.24117636620000   -1.02744571480000    0.09015646130000
C        -2.01875682220000   -0.24010753020000    0.05563448590000
C        -1.98774096500000    1.15898483220000   -0.01299845760000
N        -0.88619450500000    1.86605599760000   -0.06254297670000
C         0.30673364970000    1.26857360960000   -0.02870180650000
C         1.47107321180000    2.13689762920000   -0.12319950130000
C         1.37166581650000    3.46172418100000   -0.17428203320000
C         0.40016556730000   -0.13722151860000    0.07063948150000
C         1.69411040200000   -0.85815890390000    0.14823420460000
O         2.73605371020000   -0.41545867590000    0.56531806590000
O         1.57732087370000   -2.11802797670000   -0.30752162220000
C         2.75917992900000   -2.90184727830000   -0.26282322160000
C        -0.77910621760000   -0.87385859590000    0.10515455620000
H        -5.32786368420000   -1.22447415480000   -0.00842169620000
H        -4.69623324590000    0.47806180970000   -0.20041021420000
H        -3.08582377140000   -2.09021091660000    0.23310201340000
H        -2.90177653020000    1.73780482900000   -0.02441897800000
H         2.43364462010000    1.65033012150000   -0.13551333970000
H         0.40861477280000    3.94200319080000   -0.14364596770000
H         2.24167299970000    4.09129216300000   -0.24513877470000
H         2.48993878670000   -3.87997044290000   -0.65318124070000
H         3.12272631890000   -2.98286306100000    0.76392222160000
H         3.54024251730000   -2.44616098420000   -0.87517539200000
H        -0.72692163570000   -1.95059207060000    0.17965822430000
$end

$rem
BASIS = 6-31G*
GUI = 2
METHOD = B3LYP
PRINT_ORBITALS false
MOLDEN_FORMAT false
--------------------------------------------------------------

             Standard Nuclear Orientation (Angstroms)
    I     Atom           X                Y                Z
 ----------------------------------------------------------------
    1      C       4.3198655642     1.2607870827    -0.0502470206
    2      C       3.0245356029     1.5195014094     0.0866556901
    3      C       1.9443163022     0.5460458211     0.0564363985
    4      C       2.1381996514    -0.8400485015    -0.0090134178
    5      N       1.1643736289    -1.7149117989    -0.0546859995
    6      C      -0.1089429453    -1.3166051169    -0.0196902864
    7      C      -1.1189359769    -2.3608238387    -0.1098255754
    8      C      -0.8082142691    -3.6526335068    -0.1581624079
    9      C      -0.4266835627     0.0562042741     0.0767121683
   10      C      -1.8194517717     0.5602582017     0.1553966258
   11      O      -2.7760975805    -0.0429128112     0.5756368218
   12      O      -1.9072140586     1.8213763585    -0.3034083695
   13      C      -3.1995016309     2.4054070272    -0.2579938369
   14      C       0.6190873731     0.9726896668     0.1071274860
   15      H       5.0523544525     2.0487159442    -0.0167102206
   16      H       4.7019205948     0.2663808148    -0.2035869442
   17      H       2.7008224830     2.5439010951     0.2275557740
   18      H       3.1332835683    -1.2646508763    -0.0210489078
   19      H      -2.1471560139    -2.0351290979    -0.1212175713
   20      H       0.2195007478    -3.9719978985    -0.1284632851
   21      H      -1.5659834137    -4.4138823312    -0.2258024209
   22      H      -3.0914467144     3.4130745046    -0.6510911416
   23      H      -3.5695935449     2.4296110078     0.7693239729
   24      H      -3.8983155839     1.8286906283    -0.8676996680
   25      H       0.3948451119     2.0272653092     0.1793398496
 ----------------------------------------------------------------

    9    -630.9583598074      6.06e-06  Convergence criterion met
 Total energy in the final basis set =     -630.9583598074

                    Orbital Energies (a.u.)
 --------------------------------------------------------------

 Alpha MOs
 -- Occupied --
-19.1984 -19.1402 -14.3302 -10.3213 -10.2439 -10.2373 -10.2296 -10.2126
-10.2119 -10.2082 -10.2016 -10.1902 -10.1790 -10.1774  -1.1156  -1.0236
 -0.9578  -0.8358  -0.8149  -0.7792  -0.7425  -0.7247  -0.6610  -0.6459
 -0.6018  -0.5729  -0.5664  -0.5290  -0.5081  -0.4943  -0.4894  -0.4737
 -0.4692  -0.4393  -0.4341  -0.4293  -0.4217  -0.4007  -0.3965  -0.3884
 -0.3751  -0.3623  -0.3537  -0.3366  -0.3078  -0.2926  -0.2774  -0.2753
 -0.2554  -0.2223

          Ground-State Mulliken Net Atomic Charges

     Atom                 Charge (a.u.)
  ----------------------------------------
      1 C                    -0.350740
      2 C                    -0.114306
      3 C                     0.149767
      4 C                     0.001354
      5 N                    -0.495266
      6 C                     0.262305
      7 C                    -0.103845
      8 C                    -0.327328
      9 C                     0.031884
     10 C                     0.564786
     11 O                    -0.482994
     12 O                    -0.451118
     13 C                    -0.218390
     14 C                    -0.194901
     15 H                     0.150184
     16 H                     0.149874
     17 H                     0.132865
     18 H                     0.142949
     19 H                     0.169330
     20 H                     0.170202
     21 H                     0.144335
     22 H                     0.165689
     23 H                     0.171073
     24 H                     0.171054
     25 H                     0.161237
  ----------------------------------------
  Sum of atomic charges =     0.000000

                    Cartesian Multipole Moments
 -----------------------------------------------------------------
    Charge (ESU x 10^10)
                 0.0000
    Dipole Moment (Debye)
         X       0.6915      Y       2.7118      Z      -0.5766
       Tot       2.8574
    Quadrupole Moments (Debye-Ang)
        XX     -73.3456     XY      -3.2636     YY     -73.4923
        XZ       2.9799     YZ       1.0769     ZZ     -83.5995

 Total job time:  39.06s(wall), 38.93s(cpu)
        *  Thank you very much for using Q-Chem.  Have a nice day.  *
