 Q-Chem 5.2, Q-Chem, Inc., Pleasanton, CA (2019)
 Q-Chem 5.2.1 for Intel X86 EM64T Linux

User input:
--------------------------------------------------------------
$molecule
0 1
C        -4.57409717990000   -0.55017012540000    0.45885702360000
C        -3.56428806160000   -1.09199589060000   -0.20903230090000
C        -2.18097833060000   -0.61994503650000   -0.19154808920000
C        -1.16636367630000   -1.57283918110000   -0.22256847830000
C         0.17115702730000   -1.22951628110000   -0.14289319620000
C         0.49862467590000    0.11155089240000   -0.04520226370000
O         1.81764963580000    0.60453027850000    0.04087350960000
C         2.83909550120000   -0.22059168430000    0.03108124480000
F         2.94460425750000   -0.96614263070000   -1.08533805090000
F         3.96354413860000    0.48378657330000    0.12253514220000
F         2.85598315700000   -1.10151288810000    1.04952315590000
C        -0.48455101310000    1.08452360610000   -0.04577794010000
C        -1.83063995540000    0.74151647120000   -0.11968395690000
C        -2.83742469470000    1.79899932890000   -0.19796561940000
C        -2.75680463810000    2.96762950490000    0.42321934170000
H        -5.56393802400000   -0.97222158940000    0.41837285080000
H        -4.44594328270000    0.31344740310000    1.08909286740000
H        -3.72802347870000   -1.99657289240000   -0.78209825800000
H        -1.43076314180000   -2.61750360860000   -0.29340902420000
H         0.92039574170000   -2.00409290180000   -0.16226821010000
H        -0.18513818500000    2.11903377990000   -0.01093349790000
H        -3.69363864660000    1.57586990520000   -0.82152166370000
H        -1.94202139920000    3.20938370690000    1.08494840820000
H        -3.51877298620000    3.71951997920000    0.31078596750000
$end

$rem
BASIS = 6-31G*
GUI = 2
METHOD = B3LYP
PRINT_ORBITALS false
MOLDEN_FORMAT false
--------------------------------------------------------------

             Standard Nuclear Orientation (Angstroms)
    I     Atom           X                Y                Z
 ----------------------------------------------------------------
    1      C       4.3267874972     1.0661364186     0.5010204587
    2      C       3.2516576955     1.5354249732    -0.1180352149
    3      C       1.9360537159     0.8987348478    -0.1402921615
    4      C       0.8131169892     1.7202449747    -0.0898280008
    5      C      -0.4719817765     1.2111898393    -0.0391878164
    6      C      -0.6333725333    -0.1631890769    -0.0557818356
    7      O      -1.8818994932    -0.8185392420    -0.0114969614
    8      C      -2.9958980504    -0.1260147474     0.0492552970
    9      F      -3.2029430080     0.6926594185    -0.9996848113
   10      F      -4.0256066990    -0.9672036286     0.0808566940
   11      F      -3.1085888649     0.6572168998     1.1389250881
   12      C       0.4604559003    -1.0057173745    -0.1394244924
   13      C       1.7541591138    -0.4964183615    -0.1843460366
   14      C       2.8808374870    -1.4130957283    -0.3526076568
   15      C       2.9491438407    -2.6310583699     0.1669768728
   16      H       5.2576645341     1.6074278390     0.4962409692
   17      H       4.3110286329     0.1432739788     1.0555765434
   18      H       3.2983780723     2.4983029266    -0.6121573490
   19      H       0.9481328521     2.7915479429    -0.0716650342
   20      H      -1.3097709896     1.8876664527     0.0076268130
   21      H       0.2890713206    -2.0682029105    -0.1925779325
   22      H       3.6969710980    -1.0356066779    -0.9552179432
   23      H       2.1767988531    -3.0251445425     0.8060242002
   24      H       3.7954094429    -3.2724296506    -0.0092437936
 ----------------------------------------------------------------

    9    -799.2939109953      2.58e-06  Convergence criterion met
 Total energy in the final basis set =     -799.2939109953

                    Orbital Energies (a.u.)
 --------------------------------------------------------------

 Alpha MOs
 -- Occupied --
-24.7296 -24.7278 -24.7277 -19.2244 -10.4821 -10.2720 -10.2110 -10.2058
-10.2042 -10.2027 -10.2010 -10.1986 -10.1964 -10.1873 -10.1861  -1.3264
 -1.2260  -1.2211  -1.1216  -0.8858  -0.8158  -0.7999  -0.7613  -0.7378
 -0.6996  -0.6543  -0.6430  -0.6052  -0.6021  -0.5979  -0.5813  -0.5479
 -0.5081  -0.5020  -0.4730  -0.4711  -0.4687  -0.4598  -0.4487  -0.4448
 -0.4400  -0.4326  -0.4237  -0.4081  -0.4047  -0.4015  -0.3937  -0.3802
 -0.3662  -0.3577  -0.3507  -0.3021  -0.2929  -0.2495  -0.2276

          Ground-State Mulliken Net Atomic Charges

     Atom                 Charge (a.u.)
  ----------------------------------------
      1 C                    -0.343011
      2 C                    -0.137668
      3 C                     0.111389
      4 C                    -0.206712
      5 C                    -0.157845
      6 C                     0.344928
      7 O                    -0.518351
      8 C                     0.971352
      9 F                    -0.276249
     10 F                    -0.253074
     11 F                    -0.276369
     12 C                    -0.237719
     13 C                     0.104429
     14 C                    -0.137580
     15 C                    -0.343235
     16 H                     0.146668
     17 H                     0.164288
     18 H                     0.137319
     19 H                     0.140774
     20 H                     0.165063
     21 H                     0.153283
     22 H                     0.154096
     23 H                     0.147195
     24 H                     0.147030
  ----------------------------------------
  Sum of atomic charges =     0.000000

                    Cartesian Multipole Moments
 -----------------------------------------------------------------
    Charge (ESU x 10^10)
                 0.0000
    Dipole Moment (Debye)
         X       2.5854      Y       0.5419      Z      -0.1114
       Tot       2.6439
    Quadrupole Moments (Debye-Ang)
        XX     -83.5594     XY      -0.6074     YY     -77.4856
        XZ      -0.4074     YZ      -1.4545     ZZ     -86.4635

 Total job time:  37.88s(wall), 37.75s(cpu)
        *  Thank you very much for using Q-Chem.  Have a nice day.  *
