 Q-Chem 5.2, Q-Chem, Inc., Pleasanton, CA (2019)
 Q-Chem 5.2.1 for Intel X86 EM64T Linux

User input:
--------------------------------------------------------------
$molecule
0 1
C        -5.92046586140000   -2.88282060630000   -0.00061479810000
C        -5.51233600440000   -1.72599661100000   -0.51006667360000
C        -4.17722278340000   -1.15588185290000   -0.41857909400000
C        -3.92072129540000    0.08766525190000   -0.99564591840000
C        -2.67161766820000    0.67094964230000   -0.93212019390000
C        -1.61779673030000    0.04973696910000   -0.26047256210000
C        -1.87282563680000   -1.20503927800000    0.30287878300000
C        -3.11547393690000   -1.79771360640000    0.22031679670000
S        -0.59642138290000   -2.05332494750000    1.19534387930000
C         0.80562962510000   -1.44747586480000    0.29339515130000
C         1.92165647390000   -2.25301894150000    0.20227012270000
C         3.07972853030000   -1.80738709560000   -0.43610476780000
C         4.29079686920000   -2.60678907850000   -0.53670825960000
C         4.48068122930000   -3.82854286920000   -0.05130759440000
C         3.05078342850000   -0.53144630650000   -0.99899943540000
C         1.92734948000000    0.26599256240000   -0.92510491810000
C         0.77693669350000   -0.16495540060000   -0.26320622280000
N        -0.35871734560000    0.63504536310000   -0.16963857900000
C        -0.21776366400000    2.07647152300000   -0.18581539740000
C         0.67227990060000    2.54095249960000    0.97151724170000
C         0.72568479430000    4.06320964700000    1.09826631680000
C         1.39652110850000    4.78623092360000   -0.07254698650000
C         2.85493443420000    4.39796471210000   -0.32273946790000
C         3.77156034190000    4.71496967240000    0.85269654570000
H        -6.93551326000000   -3.21969208060000   -0.12254736990000
H        -5.27091158240000   -3.53704925400000    0.55460005490000
H        -6.22147637640000   -1.11528205310000   -1.05628312010000
H        -4.71434727390000    0.60596889180000   -1.51454765030000
H        -2.51260492800000    1.61958690420000   -1.42138991430000
H        -3.25164084110000   -2.76254070980000    0.68173731970000
H         1.88453701790000   -3.22901071950000    0.65875831190000
H         5.10107413470000   -2.12359110620000   -1.06985065750000
H         3.72063063610000   -4.36620115840000    0.48854350350000
H         5.41876835870000   -4.34071296030000   -0.17916263440000
H         3.92598297700000   -0.15704250330000   -1.51078572710000
H         1.94365772110000    1.23555549240000   -1.39690092590000
H        -1.20840214460000    2.51018671580000   -0.04228125560000
H         0.17274184580000    2.43020326250000   -1.14686519760000
H         1.67881137290000    2.13942616590000    0.85712005450000
H         0.26176178770000    2.12687452880000    1.89596475160000
H         1.25354810720000    4.31358568710000    2.01962776380000
H        -0.29405843460000    4.44509108900000    1.19628248560000
H         1.35462649670000    5.85982696010000    0.12833395400000
H         0.82380614800000    4.60871886840000   -0.98547870540000
H         3.20415459760000    4.94710118870000   -1.20092836620000
H         2.92599670060000    3.33463338270000   -0.55690133040000
H         3.67962503520000    5.76137235380000    1.13603993620000
H         4.80785718940000    4.52288179280000    0.58387584550000
H         3.52855729600000    4.10047674680000    1.71561304170000
$end

$rem
BASIS = 6-31G*
GUI = 2
METHOD = B3LYP
PRINT_ORBITALS false
MOLDEN_FORMAT false
--------------------------------------------------------------

             Standard Nuclear Orientation (Angstroms)
    I     Atom           X                Y                Z
 ----------------------------------------------------------------
    1      C       6.6389438725     0.4861717458    -0.1795880194
    2      C       5.7134402520     1.2659050959     0.3679628009
    3      C       4.2720439371     1.0777449266     0.3141061238
    4      C       3.4347685684     2.0083077649     0.9291112425
    5      C       2.0614578162     1.8748667888     0.9021454717
    6      C       1.4520065775     0.8137488220     0.2312116867
    7      C       2.2941145777    -0.1274335131    -0.3703677674
    8      C       3.6671845003    -0.0056482578    -0.3245258842
    9      S       1.6025007437    -1.4939618099    -1.2645495515
   10      C       0.1132470862    -1.7005192402    -0.3233964185
   11      C      -0.4344885287    -2.9634762267    -0.2359624851
   12      C      -1.6397040827    -3.1796163095     0.4333506432
   13      C      -2.2720706000    -4.4858450909     0.5319917744
   14      C      -1.8273726992    -5.6264244800     0.0165554201
   15      C      -2.2482679448    -2.0755666484     1.0303745075
   16      C      -1.6895511530    -0.8160705567     0.9598186602
   17      C      -0.4990587974    -0.5908414962     0.2675214476
   18      N       0.0683154232     0.6773814967     0.1771712589
   19      C      -0.7860018929     1.8455542068     0.2350802138
   20      C      -1.8206671529     1.8093580942    -0.8942986435
   21      C      -2.6448079344     3.0938387824    -0.9784744549
   22      C      -3.5570047874     3.3564901419     0.2225651293
   23      C      -4.6071936038     2.2757485038     0.4860367958
   24      C      -5.5901926624     2.0993963769    -0.6650313168
   25      H       7.6871256408     0.7115208521    -0.0836509322
   26      H       6.3973905584    -0.3991922580    -0.7417107774
   27      H       6.0281506404     2.1443173345     0.9189201998
   28      H       3.8684265400     2.8506576490     1.4488489655
   29      H       1.4556634572     2.6026749071     1.4197274490
   30      H       4.2623438188    -0.7594452513    -0.8143392593
   31      H       0.0812718337    -3.7774067517    -0.7195197419
   32      H      -3.2001224043    -4.4909098895     1.0914241119
   33      H      -0.9150105216    -5.6937006187    -0.5502441266
   34      H      -2.3702679244    -6.5468782770     0.1457922480
   35      H      -3.1774160718    -2.2069855124     1.5665559192
   36      H      -2.1837042133     0.0026974574     1.4581572991
   37      H      -0.1584096253     2.7255106825     0.0871611003
   38      H      -1.2749813236     1.9364369898     1.2117464061
   39      H      -2.4791322830     0.9494429780    -0.7743595625
   40      H      -1.2827321837     1.6761924564    -1.8363611506
   41      H      -3.2522757216     3.0543375470    -1.8838237214
   42      H      -1.9645185619     3.9433329254    -1.0827957314
   43      H      -4.0729248097     4.3046049583     0.0504559028
   44      H      -2.9482624679     3.4816583693     1.1207427188
   45      H      -5.1624158959     2.5570442326     1.3845479270
   46      H      -4.1206570764     1.3211040843     0.6921711683
   47      H      -6.0515380434     3.0508524179    -0.9211289360
   48      H      -6.3765044331     1.4021832943    -0.3845296321
   49      H      -5.0926708798     1.7075313218    -1.5483153988
 ----------------------------------------------------------------

    9   -1306.3057973128      3.02e-06  Convergence criterion met
 Total energy in the final basis set =    -1306.3057973128

                    Orbital Energies (a.u.)
 --------------------------------------------------------------

 Alpha MOs
 -- Occupied --
-88.8860 -14.3676 -10.2347 -10.2344 -10.2258 -10.2180 -10.2175 -10.1918
-10.1909 -10.1902 -10.1898 -10.1897 -10.1891 -10.1885 -10.1876 -10.1875
-10.1868 -10.1827 -10.1821 -10.1810 -10.1804 -10.1755 -10.1748 -10.1723
 -7.9471  -5.9121  -5.9086  -5.9019  -0.9793  -0.8701  -0.8664  -0.8201
 -0.8103  -0.7973  -0.7773  -0.7680  -0.7562  -0.7347  -0.7252  -0.7088
 -0.6841  -0.6668  -0.6395  -0.6223  -0.6130  -0.5987  -0.5862  -0.5663
 -0.5551  -0.5428  -0.5402  -0.5205  -0.4930  -0.4848  -0.4767  -0.4692
 -0.4611  -0.4574  -0.4504  -0.4434  -0.4380  -0.4312  -0.4261  -0.4153
 -0.4137  -0.4079  -0.4035  -0.3981  -0.3898  -0.3787  -0.3781  -0.3740
 -0.3647  -0.3589  -0.3543  -0.3525  -0.3501  -0.3392  -0.3350  -0.3271
 -0.3207  -0.3193  -0.3142  -0.3006  -0.2972  -0.2623  -0.2586  -0.2232
 -0.2170  -0.1778

          Ground-State Mulliken Net Atomic Charges

     Atom                 Charge (a.u.)
  ----------------------------------------
      1 C                    -0.355859
      2 C                    -0.117027
      3 C                     0.200104
      4 C                    -0.216130
      5 C                    -0.166804
      6 C                     0.313613
      7 C                    -0.110743
      8 C                    -0.247141
      9 S                     0.160473
     10 C                    -0.111283
     11 C                    -0.249184
     12 C                     0.202025
     13 C                    -0.117168
     14 C                    -0.355592
     15 C                    -0.221151
     16 C                    -0.166821
     17 C                     0.316635
     18 N                    -0.583920
     19 C                    -0.156274
     20 C                    -0.276139
     21 C                    -0.266652
     22 C                    -0.258348
     23 C                    -0.260073
     24 C                    -0.445113
     25 H                     0.142178
     26 H                     0.142073
     27 H                     0.124325
     28 H                     0.128104
     29 H                     0.134521
     30 H                     0.141183
     31 H                     0.141433
     32 H                     0.124463
     33 H                     0.142455
     34 H                     0.142494
     35 H                     0.128212
     36 H                     0.137314
     37 H                     0.159846
     38 H                     0.148121
     39 H                     0.160243
     40 H                     0.151871
     41 H                     0.141599
     42 H                     0.129372
     43 H                     0.131659
     44 H                     0.128596
     45 H                     0.133378
     46 H                     0.136129
     47 H                     0.143484
     48 H                     0.145074
     49 H                     0.150444
  ----------------------------------------
  Sum of atomic charges =     0.000000

                    Cartesian Multipole Moments
 -----------------------------------------------------------------
    Charge (ESU x 10^10)
                 0.0000
    Dipole Moment (Debye)
         X      -1.6255      Y       1.9438      Z       0.9597
       Tot       2.7096
    Quadrupole Moments (Debye-Ang)
        XX    -143.7210     XY       0.7270     YY    -142.9507
        XZ      -2.3032     YZ       3.7208     ZZ    -153.7594

 Total job time:  143.11s(wall), 142.68s(cpu)
        *  Thank you very much for using Q-Chem.  Have a nice day.  *
