 Q-Chem 5.2, Q-Chem, Inc., Pleasanton, CA (2019)
 Q-Chem 5.2.1 for Intel X86 EM64T Linux

User input:
--------------------------------------------------------------
$molecule
0 1
C        -4.21774257960000   -1.41001188310000    0.10206652630000
C        -3.39027428440000   -0.37264129310000    0.11178854210000
C        -1.93607902780000   -0.42556358620000    0.00841728370000
C        -1.20794338370000   -1.60139669500000   -0.20148956060000
C         0.17026046660000   -1.52986370910000   -0.20765540110000
C         0.80401324160000   -0.30192940640000   -0.03944652770000
C         2.29470959050000   -0.29024479090000    0.04786061640000
N         2.77778553780000    0.31271604050000    1.16359327840000
O         3.01213918500000   -0.83890189830000   -0.75964850410000
C        -0.00663799060000    0.84157875280000    0.05837047820000
C         0.51003321330000    2.21148430720000    0.06545906480000
C         1.60499825080000    2.61257613630000   -0.56552813610000
N        -1.32845506360000    0.75209818640000    0.11568406490000
H        -5.28257308650000   -1.27548922370000    0.18478412330000
H        -3.87799466160000   -2.42817087150000    0.01405131550000
H        -3.77476734110000    0.63338473170000    0.21038212700000
H        -1.70741550440000   -2.54577340030000   -0.34183815220000
H         0.77474951540000   -2.41670820780000   -0.33156244680000
H         2.18366078180000    0.83826721590000    1.77913945720000
H         3.77555891800000    0.38216420650000    1.27839073380000
H        -0.13494882920000    2.92268280300000    0.56354053910000
H         2.22814703500000    1.93309814410000   -1.12322396650000
H         1.90876156060000    3.64566628370000   -0.56269101030000
$end

$rem
BASIS = 6-31G*
GUI = 2
METHOD = B3LYP
PRINT_ORBITALS false
MOLDEN_FORMAT false
--------------------------------------------------------------

             Standard Nuclear Orientation (Angstroms)
    I     Atom           X                Y                Z
 ----------------------------------------------------------------
    1      C       4.4239281630    -0.2373577306    -0.0972064794
    2      C       3.3484184839     0.5397732156    -0.0803999059
    3      C       1.9616750422     0.0951753791     0.0058881057
    4      C       1.5756150666    -1.2395349557     0.1681592266
    5      C       0.2287694546    -1.5404894986     0.1623197670
    6      C      -0.7111191377    -0.5223263597     0.0292306491
    7      C      -2.1501763749    -0.9077490806    -0.0732304004
    8      N      -2.7762556133    -0.4172296052    -1.1728662218
    9      O      -2.6948308685    -1.6570002020     0.7076505532
   10      C      -0.2370056028     0.7994157369    -0.0212538358
   11      C      -1.1023683506     1.9799384704     0.0127167301
   12      C      -2.2654267336     2.0500433423     0.6454476689
   13      N       1.0603888902     1.0697850975    -0.0677289028
   14      H       5.4136714001     0.1806468252    -0.1641622194
   15      H       4.3698104533    -1.3117912137    -0.0473365013
   16      H       3.4489063870     1.6149010342    -0.1407846976
   17      H       2.3100758771    -2.0197349606     0.2816174048
   18      H      -0.1156541008    -2.5607752476     0.2497413655
   19      H      -2.3443696922     0.2698983065    -1.7639797016
   20      H      -3.7559492816    -0.6138766994    -1.2956809540
   21      H      -0.6714301445     2.8552628507    -0.4541770291
   22      H      -2.6839043508     1.2089967064     1.1732226480
   23      H      -2.8353026014     2.9632544544     0.6744719763
 ----------------------------------------------------------------

    9    -571.7781366622      4.96e-06  Convergence criterion met
 Total energy in the final basis set =     -571.7781366622

                    Orbital Energies (a.u.)
 --------------------------------------------------------------

 Alpha MOs
 -- Occupied --
-19.1128 -14.3551 -14.3284 -10.2908 -10.2364 -10.2331 -10.2106 -10.2065
-10.2007 -10.1948 -10.1929 -10.1910 -10.1903  -1.0398  -0.9583  -0.9084
 -0.8228  -0.8144  -0.7797  -0.7391  -0.6765  -0.6398  -0.6041  -0.5963
 -0.5569  -0.5443  -0.5184  -0.5088  -0.4807  -0.4675  -0.4427  -0.4324
 -0.4244  -0.4148  -0.4104  -0.4008  -0.3902  -0.3646  -0.3547  -0.3248
 -0.3034  -0.2751  -0.2685  -0.2608  -0.2472  -0.2304

          Ground-State Mulliken Net Atomic Charges

     Atom                 Charge (a.u.)
  ----------------------------------------
      1 C                    -0.344511
      2 C                    -0.090444
      3 C                     0.310514
      4 C                    -0.177958
      5 C                    -0.122107
      6 C                     0.032256
      7 C                     0.480052
      8 N                    -0.719948
      9 O                    -0.500093
     10 C                     0.254288
     11 C                    -0.122843
     12 C                    -0.338195
     13 N                    -0.564983
     14 H                     0.152482
     15 H                     0.145754
     16 H                     0.147015
     17 H                     0.139887
     18 H                     0.163828
     19 H                     0.339330
     20 H                     0.339442
     21 H                     0.148739
     22 H                     0.176201
     23 H                     0.151293
  ----------------------------------------
  Sum of atomic charges =     0.000000

                    Cartesian Multipole Moments
 -----------------------------------------------------------------
    Charge (ESU x 10^10)
                 0.0000
    Dipole Moment (Debye)
         X       0.5085      Y       0.8413      Z      -2.3894
       Tot       2.5837
    Quadrupole Moments (Debye-Ang)
        XX     -66.3802     XY     -10.4852     YY     -74.3964
        XZ       7.2401     YZ       1.1286     ZZ     -75.6970

 Total job time:  32.70s(wall), 32.59s(cpu)
        *  Thank you very much for using Q-Chem.  Have a nice day.  *
