 Q-Chem 5.2, Q-Chem, Inc., Pleasanton, CA (2019)
 Q-Chem 5.2.1 for Intel X86 EM64T Linux

User input:
--------------------------------------------------------------
$molecule
0 1
C        -4.55277435930000   -2.12993075520000    0.66222911850000
C        -3.40214865590000   -2.19815952120000   -0.00191612010000
C        -2.47568486210000   -1.11248081550000   -0.16192268020000
C        -1.28244438470000   -1.13691861550000   -0.83738505750000
C        -0.58900114540000    0.08706144160000   -0.83116076480000
C         0.75064849150000    0.26417168650000   -1.47489215380000
C         1.87874801810000    0.10876275450000   -0.44756221020000
C         3.25148002370000    0.28386067400000   -1.09200935200000
C         4.40062331410000    0.25686406970000   -0.08401668410000
C         4.61150943590000   -1.10986171660000    0.56399347540000
C         5.83368562230000   -1.11424898630000    1.47429483820000
C        -1.25951786010000    1.06633893070000   -0.12878778180000
C        -0.85294531240000    2.42602695050000    0.09241049950000
C        -1.51930205050000    3.31193232360000    0.82862623790000
S        -2.76148892730000    0.46205791540000    0.51345072660000
H        -5.20827302650000   -2.97817435280000    0.74837906660000
H        -4.87036028650000   -1.21759248680000    1.13956392610000
H        -3.09750039060000   -3.12289322050000   -0.47640156470000
H        -0.91384823280000   -2.01861153690000   -1.33327793410000
H         0.81900538190000    1.24837596710000   -1.94359577150000
H         0.87262756550000   -0.48807114210000   -2.25707586050000
H         1.80241404670000   -0.87936747540000    0.00906254950000
H         1.74887320710000    0.85138770320000    0.34318752720000
H         3.27133006170000    1.24265667380000   -1.61719470200000
H         3.40554489180000   -0.50136472610000   -1.83625598700000
H         4.21428801260000    1.00019351290000    0.69489422050000
H         5.32134613240000    0.54349831140000   -0.59878775260000
H         4.73916830980000   -1.86264598570000   -0.21755676260000
H         3.73134111800000   -1.38136398540000    1.14897327440000
H         6.73183758770000   -0.87125221470000    0.91027103180000
H         5.96914524120000   -2.09230790350000    1.93023543490000
H         5.71980180690000   -0.37875701030000    2.26783504800000
H         0.07184145960000    2.71402586360000   -0.39006801190000
H        -2.43922869550000    3.05134137510000    1.32538330780000
H        -1.16597085360000    4.31957585120000    0.95783863330000
$end

$rem
BASIS = 6-31G*
GUI = 2
METHOD = B3LYP
PRINT_ORBITALS false
MOLDEN_FORMAT false
--------------------------------------------------------------

             Standard Nuclear Orientation (Angstroms)
    I     Atom           X                Y                Z
 ----------------------------------------------------------------
    1      C       4.6740605637     2.1283809151     0.6699754513
    2      C       3.5256348196     2.1928562308     0.0016605438
    3      C       2.6017113106     1.1050915694    -0.1588664121
    4      C       1.4107902489     1.1256701124    -0.8385376668
    5      C       0.7195576468    -0.0995563587    -0.8316796421
    6      C      -0.6175153492    -0.2807137397    -1.4796280169
    7      C      -1.7494701733    -0.1248160950    -0.4566219116
    8      C      -3.1196264485    -0.3040234165    -1.1054062185
    9      C      -4.2723238241    -0.2766239905    -0.1014906998
   10      C      -4.4879539641     1.0913193416     0.5423758866
   11      C      -5.7133019837     1.0957333758     1.4484030368
   12      C       1.3894024627    -1.0758588075    -0.1245401058
   13      C       0.9845358517    -2.4357341962     0.0986266074
   14      C       1.6499328616    -3.3185885171     0.8393615892
   15      S       2.8880236211    -0.4672396532     0.5214167676
   16      H       5.3277105063     2.9780327916     0.7562943851
   17      H       4.9916400084     1.2178132053     1.1506834687
   18      H       3.2209604511     3.1158500415    -0.4761839621
   19      H       1.0423214249     2.0054532725    -1.3379048592
   20      H      -0.6824471027    -1.2662025008    -1.9461144377
   21      H      -0.7381354672     0.4693596802    -2.2641024720
   22      H      -1.6765264368     0.8645831775    -0.0021962428
   23      H      -1.6210017397    -0.8652359695     0.3364220337
   24      H      -3.1359010591    -1.2641556345    -1.6282682521
   25      H      -3.2725243709     0.4790679920    -1.8521377884
   26      H      -4.0873527846    -1.0176745458     0.6799128400
   27      H      -5.1907235207    -0.5662186801    -0.6187487230
   28      H      -4.6142570315     1.8419253895    -0.2414862279
   29      H      -3.6103256692     1.3658823810     1.1297384905
   30      H      -6.6090387038     0.8496948737     0.8818626394
   31      H      -5.8521294908     2.0746725007     1.9014322794
   32      H      -5.6008471277     0.3624241378     2.2441639944
   33      H       0.0619621443    -2.7266207698    -0.3863499047
   34      H       2.5676465722    -3.0550831967     1.3386678605
   35      H       1.2979873232    -4.3265522371     0.9698519485
 ----------------------------------------------------------------

    9    -943.6881772836      1.75e-06  Convergence criterion met
 Total energy in the final basis set =     -943.6881772836

                    Orbital Energies (a.u.)
 --------------------------------------------------------------

 Alpha MOs
 -- Occupied --
-88.8961 -10.2150 -10.2112 -10.1963 -10.1952 -10.1913 -10.1874 -10.1852
-10.1802 -10.1789 -10.1788 -10.1758 -10.1747 -10.1739 -10.1677  -7.9582
 -5.9223  -5.9187  -5.9149  -0.8881  -0.8159  -0.8036  -0.7839  -0.7671
 -0.7377  -0.7113  -0.6893  -0.6374  -0.6250  -0.6006  -0.5694  -0.5655
 -0.5471  -0.5136  -0.4939  -0.4743  -0.4646  -0.4516  -0.4438  -0.4257
 -0.4239  -0.4177  -0.4087  -0.3905  -0.3892  -0.3838  -0.3722  -0.3628
 -0.3574  -0.3550  -0.3460  -0.3394  -0.3266  -0.3248  -0.3186  -0.3109
 -0.3095  -0.2669  -0.2426  -0.1946

          Ground-State Mulliken Net Atomic Charges

     Atom                 Charge (a.u.)
  ----------------------------------------
      1 C                    -0.374494
      2 C                    -0.055285
      3 C                    -0.135860
      4 C                    -0.179884
      5 C                     0.156268
      6 C                    -0.349567
      7 C                    -0.256024
      8 C                    -0.252561
      9 C                    -0.247587
     10 C                    -0.252717
     11 C                    -0.440857
     12 C                    -0.201175
     13 C                    -0.054413
     14 C                    -0.377157
     15 S                     0.239299
     16 H                     0.145956
     17 H                     0.156704
     18 H                     0.136885
     19 H                     0.131035
     20 H                     0.145531
     21 H                     0.142632
     22 H                     0.143689
     23 H                     0.140434
     24 H                     0.125726
     25 H                     0.127628
     26 H                     0.128258
     27 H                     0.126777
     28 H                     0.128944
     29 H                     0.138363
     30 H                     0.141568
     31 H                     0.141547
     32 H                     0.142861
     33 H                     0.136351
     34 H                     0.156837
     35 H                     0.144287
  ----------------------------------------
  Sum of atomic charges =     0.000000

                    Cartesian Multipole Moments
 -----------------------------------------------------------------
    Charge (ESU x 10^10)
                 0.0000
    Dipole Moment (Debye)
         X      -1.1143      Y       0.4718      Z      -0.5703
       Tot       1.3377
    Quadrupole Moments (Debye-Ang)
        XX    -100.1984     XY       3.0328     YY     -93.7431
        XZ       3.2296     YZ      -2.3836     ZZ    -101.3131

 Total job time:  52.20s(wall), 52.05s(cpu)
        *  Thank you very much for using Q-Chem.  Have a nice day.  *
