 Q-Chem 5.2, Q-Chem, Inc., Pleasanton, CA (2019)
 Q-Chem 5.2.1 for Intel X86 EM64T Linux

User input:
--------------------------------------------------------------
$molecule
0 1
C        -3.88876038780000    0.22293112560000   -0.03905641890000
C        -2.90771108360000   -0.67070977390000    0.01456176760000
C        -1.48111369050000   -0.39007969580000    0.01291810200000
C        -0.56567719120000   -1.44769740400000    0.01235806280000
N         0.73664639760000   -1.29299215130000    0.00604566120000
C         1.25777111920000   -0.06541891180000    0.00209190460000
C         2.71358721410000    0.02251736780000   -0.00676181770000
C         3.50266200930000   -1.04599211070000   -0.02231108420000
C         0.43910483030000    1.08061195640000    0.00668629180000
C         1.00642095310000    2.46783134940000    0.00668798680000
C        -0.93258246120000    0.89336873710000    0.01183239980000
H        -4.92185411690000   -0.07921958380000   -0.03552607610000
H        -3.70955812890000    1.28334626690000   -0.09066888890000
H        -3.15502513260000   -1.72459817640000    0.05952668860000
H        -0.91234060570000   -2.47458754160000    0.01541328240000
H         3.13937253690000    1.01519135500000   -0.00119063000000
H         3.07937536860000   -2.03525448650000   -0.02832981260000
H         4.57594016160000   -0.96180270700000   -0.02939633930000
H         1.62676297520000    2.63074598540000    0.88730147300000
H         0.20537090370000    3.20380915000000    0.01075918840000
H         1.62042558070000    2.63344235080000   -0.87782906120000
H        -1.58119258510000    1.75792083490000    0.01775525840000
$end

$rem
BASIS = 6-31G*
GUI = 2
METHOD = B3LYP
PRINT_ORBITALS false
MOLDEN_FORMAT false
--------------------------------------------------------------

             Standard Nuclear Orientation (Angstroms)
    I     Atom           X                Y                Z
 ----------------------------------------------------------------
    1      C       3.8877603057    -0.2057987252    -0.0381486647
    2      C       2.9104415846     0.6919430770     0.0150911560
    3      C       1.4826862736     0.4172651716     0.0133927532
    4      C       0.5716690765     1.4786916713     0.0124094994
    5      N      -0.7312878236     1.3294176869     0.0060153096
    6      C      -1.2575277762     0.1040275177     0.0023943308
    7      C      -2.7136971050     0.0221613305    -0.0065774725
    8      C      -3.4983067886     1.0939477536    -0.0225407255
    9      C      -0.4436491132    -1.0454064804     0.0074299732
   10      C      -1.0167463331    -2.4302475037     0.0078098827
   11      C       0.9288067155    -0.8638844912     0.0126546067
   12      H       4.9221049529     0.0920414907    -0.0346097029
   13      H       3.7041417553    -1.2654733557    -0.0894465589
   14      H       3.1621447660     1.7448048493     0.0597503626
   15      H       0.9226122882     2.5041278774     0.0151774123
   16      H      -3.1436196740    -0.9687263043    -0.0007376235
   17      H      -3.0708970654     2.0814340882    -0.0288272954
   18      H      -4.5719260507     1.0142334269    -0.0297069635
   19      H      -1.6378494193    -2.5902968241     0.8884123392
   20      H      -0.2187733903    -3.1695587095     0.0121920014
   21      H      -1.6313490349    -2.5935738024    -0.8767166199
   22      H       1.5738045986    -1.7311324722     0.0189134462
 ----------------------------------------------------------------

    9    -442.4023214569      2.61e-06  Convergence criterion met
 Total energy in the final basis set =     -442.4023214569

                    Orbital Energies (a.u.)
 --------------------------------------------------------------

 Alpha MOs
 -- Occupied --
-14.3187 -10.2203 -10.2135 -10.2013 -10.1980 -10.1974 -10.1946 -10.1883
-10.1838 -10.1833 -10.1764  -0.9456  -0.8259  -0.8109  -0.7736  -0.7304
 -0.6998  -0.6511  -0.6096  -0.5781  -0.5550  -0.5127  -0.4989  -0.4612
 -0.4451  -0.4358  -0.4251  -0.4107  -0.4006  -0.3934  -0.3930  -0.3909
 -0.3576  -0.3404  -0.3288  -0.2777  -0.2652  -0.2468  -0.2139

          Ground-State Mulliken Net Atomic Charges

     Atom                 Charge (a.u.)
  ----------------------------------------
      1 C                    -0.351978
      2 C                    -0.117598
      3 C                     0.158872
      4 C                    -0.024954
      5 N                    -0.493574
      6 C                     0.256992
      7 C                    -0.107591
      8 C                    -0.324719
      9 C                     0.136129
     10 C                    -0.539412
     11 C                    -0.211291
     12 H                     0.147108
     13 H                     0.142255
     14 H                     0.132044
     15 H                     0.134652
     16 H                     0.124460
     17 H                     0.172516
     18 H                     0.139240
     19 H                     0.169838
     20 H                     0.158143
     21 H                     0.169840
     22 H                     0.129029
  ----------------------------------------
  Sum of atomic charges =     0.000000

                    Cartesian Multipole Moments
 -----------------------------------------------------------------
    Charge (ESU x 10^10)
                 0.0000
    Dipole Moment (Debye)
         X       0.6524      Y      -1.7169      Z      -0.0004
       Tot       1.8367
    Quadrupole Moments (Debye-Ang)
        XX     -58.7187     XY       2.6109     YY     -60.8364
        XZ       0.0227     YZ       0.0852     ZZ     -68.4382

 Total job time:  26.74s(wall), 26.64s(cpu)
        *  Thank you very much for using Q-Chem.  Have a nice day.  *
