 Q-Chem 5.2, Q-Chem, Inc., Pleasanton, CA (2019)
 Q-Chem 5.2.1 for Intel X86 EM64T Linux

User input:
--------------------------------------------------------------
$molecule
0 1
C         3.07651146290000    0.06858522710000    2.81054371840000
C         1.86335903160000    0.28146915390000    2.30658323990000
C         1.35225988300000   -0.32875433570000    1.10966761610000
S         2.25854832100000   -1.56486621820000    0.29352334180000
C         1.02162669030000   -1.73605734180000   -0.91338520300000
C         1.18304037550000   -2.67040568880000   -1.99388355330000
C         2.18046066480000   -3.54502202040000   -2.10024818400000
C        -0.03397802680000   -0.87758871920000   -0.68185423850000
C        -1.25927642420000   -0.87565340190000   -1.54709054610000
C        -2.14275542130000   -2.10383713580000   -1.27894186960000
C        -2.78577375870000   -2.09845383420000    0.10891083260000
C        -4.01343643570000   -1.19297361730000    0.19389083520000
C        -4.69006683500000   -1.22971987390000    1.56486274670000
C        -3.87268344700000   -0.55075207340000    2.65770897630000
C         0.15690924350000   -0.07261887920000    0.46958814260000
C        -0.77337813560000    1.00851462930000    0.93150822560000
C        -0.24199358880000    2.40085913250000    0.56280356160000
C        -0.17198797040000    2.61066004710000   -0.94758678280000
C         0.40476030710000    3.97169700260000   -1.33749785040000
C         1.90231301360000    4.09472935630000   -1.06352762830000
C         2.45525619460000    5.42571703980000   -1.55837890080000
H         3.40435463770000    0.54809898280000    3.71585016430000
H         3.77815851440000   -0.59179523990000    2.32846885010000
H         1.18511142000000    0.95572048640000    2.81255527760000
H         0.42324001490000   -2.62985212260000   -2.76300510420000
H         2.95002561230000   -3.61529375940000   -1.34943632040000
H         2.25619115920000   -4.21641109630000   -2.93717681050000
H        -0.95839681540000   -0.88208261120000   -2.59772745530000
H        -1.83592710360000    0.03302057510000   -1.38382846680000
H        -1.52757979320000   -3.00055909840000   -1.37835372520000
H        -2.92628566830000   -2.15115415220000   -2.03932733240000
H        -2.03860518800000   -1.79392649870000    0.84283558960000
H        -3.09509671670000   -3.11694685330000    0.35642066820000
H        -4.73524633990000   -1.51686150650000   -0.56086948420000
H        -3.74052900850000   -0.16164477210000   -0.03855416980000
H        -4.87649047020000   -2.26927378190000    1.84410731070000
H        -5.65909619110000   -0.72985303880000    1.49050803810000
H        -2.91723949040000   -1.04930810660000    2.79852857760000
H        -4.41116367630000   -0.57776528750000    3.60245714860000
H        -3.68512617580000    0.48996117830000    2.40173386650000
H        -0.89245902710000    0.94892020170000    2.01611921830000
H        -1.75845201880000    0.87193757470000    0.48801214350000
H         0.75253527720000    2.52299479670000    0.99327919700000
H        -0.89593988130000    3.15854016600000    1.00218052300000
H        -1.17976339640000    2.52519598820000   -1.36304743710000
H         0.43866000910000    1.82247627970000   -1.39390483220000
H        -0.12829645360000    4.75956360050000   -0.79934939070000
H         0.23434724460000    4.12987396180000   -2.40551649170000
H         2.42616461040000    3.27566134220000   -1.56185916200000
H         2.09338343310000    4.00674614590000    0.00725805520000
H         2.30443152930000    5.52767269030000   -2.63108982620000
H         3.52090609310000    5.49788767060000   -1.35355495520000
H         1.95376924920000    6.25464004120000   -1.06311678390000
$end

$rem
BASIS = 6-31G*
GUI = 2
METHOD = B3LYP
PRINT_ORBITALS false
MOLDEN_FORMAT false
--------------------------------------------------------------

             Standard Nuclear Orientation (Angstroms)
    I     Atom           X                Y                Z
 ----------------------------------------------------------------
    1      C       1.7101163957     1.7528204112    -3.4267691621
    2      C       1.1276245711     0.8275300070    -2.6681022432
    3      C       0.5039321099     1.0800296938    -1.3978842779
    4      S       0.3127092007     2.7051353772    -0.8166028381
    5      C      -0.4708881253     2.1428816223     0.6276117244
    6      C      -0.9004915120     3.0759774653     1.6332513089
    7      C      -0.8632546356     4.4003169125     1.5073432496
    8      C      -0.5758732946     0.7668026101     0.6437656336
    9      C      -1.2716171437     0.0373554769     1.7545496597
   10      C      -2.7973807727     0.1960896934     1.6666694460
   11      C      -3.4118952464    -0.5014230389     0.4519741611
   12      C      -3.5768625991    -2.0074575471     0.6492493632
   13      C      -4.2423394677    -2.6974716934    -0.5422891304
   14      C      -3.3500287256    -2.7604644533    -1.7764849051
   15      C      -0.0163186722     0.1610883750    -0.5095959057
   16      C       0.0938420866    -1.3158668356    -0.7422380067
   17      C       1.5193624548    -1.8204625955    -0.4772650261
   18      C       1.9269783257    -1.6574512834     0.9847448291
   19      C       3.3626497189    -2.1048013921     1.2600925027
   20      C       4.4124032041    -1.1658904866     0.6690555469
   21      C       5.8245781037    -1.5920483897     1.0515521504
   22      H       2.1559226051     1.5077083285    -4.3744881293
   23      H       1.7590697085     2.7840350972    -3.1185371565
   24      H       1.1011466445    -0.2004546728    -3.0045376791
   25      H      -1.2711581044     2.6362718114     2.5496324277
   26      H      -0.5053710747     4.8702884405     0.6062700561
   27      H      -1.1904549767     5.0523162359     2.2977765131
   28      H      -0.9319169670     0.4343001015     2.7144697312
   29      H      -1.0115241096    -1.0194309570     1.7339837726
   30      H      -3.0318141127     1.2614442700     1.6167226362
   31      H      -3.2494898567    -0.2023124435     2.5783808661
   32      H      -2.7917282277    -0.2993041980    -0.4222021158
   33      H      -4.3987584358    -0.0718971762     0.2625581645
   34      H      -4.1914871461    -2.1747919090     1.5379629953
   35      H      -2.6068975738    -2.4742487657     0.8320665918
   36      H      -5.1671726902    -2.1712823538    -0.7896995495
   37      H      -4.5107322747    -3.7162688819    -0.2517190727
   38      H      -3.0988349831    -1.7635039495    -2.1289517691
   39      H      -3.8579321922    -3.2863494120    -2.5819157581
   40      H      -2.4267816336    -3.2905708907    -1.5520143475
   41      H      -0.1778950035    -1.5439287450    -1.7758043952
   42      H      -0.6013800110    -1.8510923329    -0.0973252034
   43      H       2.2120740751    -1.2664699802    -1.1117387070
   44      H       1.5793853508    -2.8765322217    -0.7527511653
   45      H       1.2502829045    -2.2483632189     1.6079858430
   46      H       1.8167078097    -0.6103809820     1.2759639982
   47      H       3.5117553472    -3.1118166062     0.8623803944
   48      H       3.5116627153    -2.1531773166     2.3418407531
   49      H       4.2288248486    -0.1509790690     1.0294456502
   50      H       4.3282451415    -1.1509442948    -0.4188437878
   51      H       5.9460438864    -1.5874389435     2.1327905979
   52      H       6.5589446496    -0.9151432848     0.6211146869
   53      H       6.0306958217    -2.5971750261     0.6894430588
 ----------------------------------------------------------------

    9   -1179.5624880676      1.68e-06  Convergence criterion met
 Total energy in the final basis set =    -1179.5624880676

                    Orbital Energies (a.u.)
 --------------------------------------------------------------

 Alpha MOs
 -- Occupied --
-88.8931 -10.2090 -10.2090 -10.1940 -10.1939 -10.1893 -10.1888 -10.1850
-10.1849 -10.1782 -10.1782 -10.1772 -10.1771 -10.1746 -10.1736 -10.1715
-10.1714 -10.1710 -10.1708 -10.1674 -10.1650  -7.9552  -5.9193  -5.9156
 -5.9119  -0.8888  -0.8160  -0.8137  -0.8007  -0.7859  -0.7712  -0.7640
 -0.7342  -0.7236  -0.6886  -0.6854  -0.6477  -0.6353  -0.6259  -0.5973
 -0.5938  -0.5680  -0.5634  -0.5569  -0.5288  -0.5084  -0.4895  -0.4765
 -0.4710  -0.4625  -0.4498  -0.4473  -0.4416  -0.4335  -0.4285  -0.4222
 -0.4178  -0.4125  -0.4049  -0.4009  -0.3931  -0.3856  -0.3800  -0.3766
 -0.3701  -0.3636  -0.3574  -0.3532  -0.3518  -0.3445  -0.3391  -0.3360
 -0.3309  -0.3229  -0.3209  -0.3175  -0.3158  -0.3131  -0.3094  -0.3059
 -0.3029  -0.2636  -0.2351  -0.1914

          Ground-State Mulliken Net Atomic Charges

     Atom                 Charge (a.u.)
  ----------------------------------------
      1 C                    -0.378186
      2 C                    -0.055245
      3 C                    -0.202079
      4 S                     0.233365
      5 C                    -0.202637
      6 C                    -0.055390
      7 C                    -0.378276
      8 C                     0.114535
      9 C                    -0.354409
     10 C                    -0.258059
     11 C                    -0.263962
     12 C                    -0.255129
     13 C                    -0.249913
     14 C                    -0.448354
     15 C                     0.108900
     16 C                    -0.360080
     17 C                    -0.259717
     18 C                    -0.260899
     19 C                    -0.248148
     20 C                    -0.252220
     21 C                    -0.440945
     22 H                     0.143832
     23 H                     0.157469
     24 H                     0.138332
     25 H                     0.138973
     26 H                     0.157586
     27 H                     0.143985
     28 H                     0.146762
     29 H                     0.147793
     30 H                     0.142860
     31 H                     0.127511
     32 H                     0.150231
     33 H                     0.130298
     34 H                     0.127518
     35 H                     0.128639
     36 H                     0.131226
     37 H                     0.128952
     38 H                     0.151991
     39 H                     0.142221
     40 H                     0.141485
     41 H                     0.149025
     42 H                     0.148961
     43 H                     0.148588
     44 H                     0.127719
     45 H                     0.122765
     46 H                     0.145891
     47 H                     0.124841
     48 H                     0.125983
     49 H                     0.135303
     50 H                     0.137133
     51 H                     0.140969
     52 H                     0.141609
     53 H                     0.140400
  ----------------------------------------
  Sum of atomic charges =     0.000000

                    Cartesian Multipole Moments
 -----------------------------------------------------------------
    Charge (ESU x 10^10)
                 0.0000
    Dipole Moment (Debye)
         X      -0.3973      Y      -1.1961      Z       0.4855
       Tot       1.3506
    Quadrupole Moments (Debye-Ang)
        XX    -141.2802     XY       0.0649     YY    -138.2259
        XZ      -4.1930     YZ       2.4092     ZZ    -135.5220

 Total job time:  149.98s(wall), 148.72s(cpu)
        *  Thank you very much for using Q-Chem.  Have a nice day.  *
