 Q-Chem 5.2, Q-Chem, Inc., Pleasanton, CA (2019)
 Q-Chem 5.2.1 for Intel X86 EM64T Linux

User input:
--------------------------------------------------------------
$molecule
0 1
C         0.74645655730000   -3.89821891620000   -0.13862623100000
C         1.45132489410000   -2.77399184750000   -0.08944417150000
C         0.91598812230000   -1.42078225010000   -0.02805368000000
C        -0.43901105970000   -1.12768504000000   -0.01406845060000
C        -0.91889009880000    0.17836358630000    0.04615222240000
C        -2.36623532830000    0.41948005870000    0.03733036570000
O        -2.90321897850000    1.51304788220000    0.06035995890000
O        -3.08822761890000   -0.71207508870000   -0.00598343260000
C        -4.49639679240000   -0.54551813940000   -0.01949734530000
C        -0.01106205490000    1.26499693060000    0.09625439560000
N        -0.45659217760000    2.53515859470000    0.14471736910000
C         1.38027098990000    0.99231544200000    0.09442182360000
C         2.34151222530000    2.09512856710000    0.20782044330000
C         3.48069075860000    2.18999294550000   -0.46192072720000
C         1.79304287400000   -0.32615631340000    0.02734959790000
F         3.11844711380000   -0.58464292560000    0.05204076460000
H         1.23380540860000   -4.85666768900000   -0.18197842690000
H        -0.32973836840000   -3.91530201710000   -0.13645551930000
H         2.53177336660000   -2.83235027410000   -0.09292078960000
H        -1.15719877200000   -1.92869420450000   -0.05318837450000
H        -4.91952839740000   -1.54662748750000   -0.03366370140000
H        -4.80553981740000    0.01410702270000   -0.90507468540000
H        -4.82454631240000   -0.00225463810000    0.86937796650000
H        -1.45643574320000    2.67963117680000    0.09817031470000
H         0.18142991950000    3.30247964700000    0.04649643820000
H         2.07000752270000    2.87052027690000    0.91552313950000
H         3.78651532360000    1.45084655160000   -1.18175257830000
H         4.15185000260000    3.01846651290000   -0.31253621050000
$end

$rem
BASIS = 6-31G*
GUI = 2
METHOD = B3LYP
PRINT_ORBITALS false
MOLDEN_FORMAT false
--------------------------------------------------------------

             Standard Nuclear Orientation (Angstroms)
    I     Atom           X                Y                Z
 ----------------------------------------------------------------
    1      C      -0.5314652823    -3.9361757813     0.0330834380
    2      C      -1.3045722352    -2.8572480012    -0.0038656334
    3      C      -0.8542610762    -1.4722229158    -0.0252160222
    4      C       0.4797144937    -1.0949533255    -0.0078614979
    5      C       0.8776253054     0.2395298745    -0.0301103357
    6      C       2.3066295489     0.5701582967     0.0105702555
    7      O       2.7742327480     1.6953221116     0.0217963450
    8      O       3.0973831194    -0.5148759440     0.0418031180
    9      C       4.4918944542    -0.2611943366     0.0847919952
   10      C      -0.0956373852     1.2683127370    -0.0725316379
   11      N       0.2700511860     2.5645712164    -0.0844575128
   12      C      -1.4669464274     0.9094325765    -0.1022424993
   13      C      -2.4934576476     1.9525117925    -0.2085496594
   14      C      -3.6474741640     1.9604333597     0.4421909534
   15      C      -1.7972277699    -0.4334220134    -0.0721947583
   16      F      -3.1031910526    -0.7734060540    -0.1268951959
   17      H      -0.9583614897    -4.9239017750     0.0460970975
   18      H       0.5435634748    -3.8860601641     0.0502199087
   19      H      -2.3791327648    -2.9829334125    -0.0214593855
   20      H       1.2459967748    -1.8503148045     0.0264916948
   21      H       4.9767235963    -1.2340260087     0.0843354749
   22      H       4.7503298724     0.2957129141     0.9881537201
   23      H       4.8002414170     0.3221550871    -0.7855770413
   24      H       1.2579291383     2.7699808463    -0.0164123349
   25      H      -0.4164362823     3.2880999971     0.0191870928
   26      H      -2.2592590900     2.7596959317    -0.8936737463
   27      H      -3.9183993415     1.1869896555     1.1396207597
   28      H      -4.3666919595     2.7487147838     0.2990928201
 ----------------------------------------------------------------

    9    -769.5160508255      6.06e-06  Convergence criterion met
 Total energy in the final basis set =     -769.5160508255

                    Orbital Energies (a.u.)
 --------------------------------------------------------------

 Alpha MOs
 -- Occupied --
-24.7111 -19.1938 -19.1388 -14.3471 -10.3175 -10.2760 -10.2491 -10.2409
-10.1979 -10.1975 -10.1970 -10.1969 -10.1912 -10.1849 -10.1840 -10.1714
 -1.2226  -1.1120  -1.0202  -0.9395  -0.8596  -0.8073  -0.7883  -0.7537
 -0.7205  -0.7169  -0.6482  -0.6333  -0.6067  -0.5700  -0.5535  -0.5489
 -0.5408  -0.5161  -0.4983  -0.4877  -0.4788  -0.4735  -0.4609  -0.4568
 -0.4388  -0.4358  -0.4165  -0.4153  -0.4102  -0.3954  -0.3846  -0.3747
 -0.3578  -0.3536  -0.3386  -0.3351  -0.3057  -0.2944  -0.2794  -0.2672
 -0.2369  -0.1942

          Ground-State Mulliken Net Atomic Charges

     Atom                 Charge (a.u.)
  ----------------------------------------
      1 C                    -0.359537
      2 C                    -0.109096
      3 C                     0.113937
      4 C                    -0.265789
      5 C                     0.032379
      6 C                     0.621973
      7 O                    -0.538177
      8 O                    -0.462003
      9 C                    -0.214676
     10 C                     0.271528
     11 N                    -0.847692
     12 C                     0.044143
     13 C                    -0.148827
     14 C                    -0.320158
     15 C                     0.230814
     16 F                    -0.281610
     17 H                     0.141151
     18 H                     0.137930
     19 H                     0.138539
     20 H                     0.161775
     21 H                     0.164892
     22 H                     0.168222
     23 H                     0.169334
     24 H                     0.384012
     25 H                     0.333034
     26 H                     0.136243
     27 H                     0.155044
     28 H                     0.142615
  ----------------------------------------
  Sum of atomic charges =     0.000000

                    Cartesian Multipole Moments
 -----------------------------------------------------------------
    Charge (ESU x 10^10)
                 0.0000
    Dipole Moment (Debye)
         X       0.9986      Y       0.9153      Z       0.2937
       Tot       1.3860
    Quadrupole Moments (Debye-Ang)
        XX     -82.7920     XY      -7.9392     YY     -84.2568
        XZ      -0.7374     YZ      -0.4569     ZZ     -93.7540

 Total job time:  50.53s(wall), 49.24s(cpu)
        *  Thank you very much for using Q-Chem.  Have a nice day.  *
