 Q-Chem 5.2, Q-Chem, Inc., Pleasanton, CA (2019)
 Q-Chem 5.2.1 for Intel X86 EM64T Linux

User input:
--------------------------------------------------------------
$molecule
0 1
C        -2.17649807420000    6.07916674570000   -0.20902708700000
O        -1.31708148000000    4.97060283980000   -0.11743114130000
C        -1.86081217860000    3.71803647870000   -0.08546734890000
C        -3.23168669730000    3.45104968310000   -0.12919625210000
C        -3.69826949320000    2.14984803120000   -0.11035848980000
C        -0.93602820780000    2.67868880750000   -0.00573936510000
C        -1.40969800290000    1.38159702190000    0.03939916780000
C        -2.79469046360000    1.10328944330000   -0.02990189110000
C        -2.92645959920000   -0.32677346020000   -0.01248250100000
C        -4.00806441410000   -1.19165987340000   -0.03359082960000
C        -3.78909948400000   -2.55548165310000    0.02189439780000
C        -2.49193429510000   -3.06665052120000    0.11593969820000
O        -2.19018374030000   -4.39605117700000    0.19390102090000
C        -3.24018441030000   -5.33053333210000    0.18406836480000
C        -1.39096790640000   -2.21265490740000    0.13930540230000
C        -1.61509300360000   -0.85190515910000    0.05711812760000
N        -0.70669997540000    0.19120204970000    0.08963136700000
C         0.68196771170000    0.06357440480000    0.16350096520000
C         1.41160130100000    0.80949226240000    1.08768060380000
C         2.78185885530000    0.67976406620000    1.15391102340000
C         3.46797249760000   -0.19892331460000    0.31082238310000
C         4.91181953020000   -0.28645016130000    0.44186470790000
C         5.75839732630000   -1.05017131740000   -0.23370385690000
F         5.48686226310000   -1.92221196970000   -1.19784969270000
F         7.07386242300000   -1.04216631820000   -0.01959411050000
C         2.72812213950000   -0.94392753450000   -0.61071515590000
C         1.35753283540000   -0.81178973170000   -0.68517624120000
H        -1.52725674470000    6.95342284030000   -0.22497439700000
H        -2.84621563540000    6.14378434800000    0.65496332740000
H        -2.77052022760000    6.05481811160000   -1.12854174700000
H        -3.94346637550000    4.25862601740000   -0.18848451080000
H        -4.75856338010000    1.95478346900000   -0.16192213280000
H         0.11515735040000    2.91608886230000    0.00419132960000
H        -5.01515950300000   -0.80740089770000   -0.08885663030000
H        -4.63755330440000   -3.22034547680000    0.00150456890000
H        -2.76432604290000   -6.30734685340000    0.25784709570000
H        -3.81710910030000   -5.28036388920000   -0.74531408630000
H        -3.91232616290000   -5.19185342970000    1.03732700770000
H        -0.40466115970000   -2.63659317420000    0.23342426990000
H         0.89453827350000    1.47468640300000    1.76198122060000
H         3.33516316010000    1.26043476820000    1.87741473700000
H         5.36698947560000    0.35015280090000    1.18709141820000
H         3.22277260970000   -1.62540593770000   -1.28288732180000
H         0.80031093990000   -1.37571234080000   -1.41725545990000
$end

$rem
BASIS = 6-31G*
GUI = 2
METHOD = B3LYP
PRINT_ORBITALS false
MOLDEN_FORMAT false
--------------------------------------------------------------

             Standard Nuclear Orientation (Angstroms)
    I     Atom           X                Y                Z
 ----------------------------------------------------------------
    1      C       3.6092273847    -5.2927397968    -0.2455818349
    2      O       2.4885083858    -4.4505055796    -0.1429607740
    3      C       2.6821702287    -3.0986925751    -0.1168085862
    4      C       3.9331095047    -2.4789913779    -0.1769123776
    5      C       4.0393628800    -1.1006972542    -0.1629254349
    6      C       1.5165680395    -2.3405206863    -0.0253074966
    7      C       1.6310523265    -0.9642484951     0.0148903402
    8      C       2.8923126414    -0.3299645030    -0.0709472774
    9      C       2.6416070527     1.0841128525    -0.0542622930
   10      C       3.4558188051     2.2040551789    -0.0878993636
   11      C       2.8848349520     3.4616471895    -0.0289597996
   12      C       1.4998949142     3.6120407065     0.0810335613
   13      O       0.8584385404     4.8146140842     0.1634256762
   14      C       1.6239102686     5.9933535329     0.1414864050
   15      C       0.6641595810     2.4974904775     0.1171679401
   16      C       1.2389928394     1.2441553639     0.0314678653
   17      N       0.6390610466    -0.0018598124     0.0743126775
   18      C      -0.7329836963    -0.2456044115     0.1650059643
   19      C      -1.2285617546    -1.1554247907     1.0974736018
   20      C      -2.5834977067    -1.3922976707     1.1803074289
   21      C      -3.4873528544    -0.7284011698     0.3460837138
   22      C      -4.9013372010    -1.0252551266     0.4945872127
   23      C      -5.9275756562    -0.5142097075    -0.1702616932
   24      F      -5.9075789329     0.3960678716    -1.1370906556
   25      F      -7.1915230331    -0.8690497163     0.0596971743
   26      C      -2.9816494590     0.1832452646    -0.5838658174
   27      C      -1.6258537532     0.4178604227    -0.6749351550
   28      H       3.2140112835    -6.3075412393    -0.2542192669
   29      H       4.2823478206    -5.1757964462     0.6102274978
   30      H       4.1648018491    -5.1146573217    -1.1721810099
   31      H       4.8322786734    -3.0698783606    -0.2452667733
   32      H       5.0097067322    -0.6324677280    -0.2271596819
   33      H       0.5657067881    -2.8472814806    -0.0028383980
   34      H       4.5279388200     2.0994936575    -0.1555406903
   35      H       3.5270811831     4.3270602229    -0.0591855302
   36      H       0.9076945663     6.8098511452     0.2215854644
   37      H       2.1825762826     6.0950233973    -0.7948182115
   38      H       2.3188175937     6.0394811778     0.9864911461
   39      H      -0.3979424523     2.6459159904     0.2234324776
   40      H      -0.5461526852    -1.6585415336     1.7650888698
   41      H      -2.9550736087    -2.0966675940     1.9100855470
   42      H      -5.1632359652    -1.7575744456     1.2448693681
   43      H      -3.6467236922     0.7079963669    -1.2496134176
   44      H      -1.2461742540     1.1070909026    -1.4133454446
 ----------------------------------------------------------------

    9   -1253.4299973232      4.46e-06  Convergence criterion met
 Total energy in the final basis set =    -1253.4299973232

                    Orbital Energies (a.u.)
 --------------------------------------------------------------

 Alpha MOs
 -- Occupied --
-24.7456 -24.7347 -19.1714 -19.1712 -14.3788 -10.3578 -10.2400 -10.2398
-10.2357 -10.2355 -10.2334 -10.2186 -10.2186 -10.2087 -10.2046 -10.1962
-10.1942 -10.1939 -10.1932 -10.1842 -10.1841 -10.1767 -10.1763 -10.1758
-10.1756 -10.1755 -10.1753  -1.2862  -1.2252  -1.0611  -1.0610  -0.9979
 -0.8775  -0.8480  -0.8442  -0.8101  -0.7812  -0.7619  -0.7533  -0.7516
 -0.7373  -0.7177  -0.7008  -0.6731  -0.6589  -0.6317  -0.6291  -0.6071
 -0.6057  -0.5762  -0.5746  -0.5713  -0.5451  -0.5369  -0.5324  -0.5198
 -0.5093  -0.4924  -0.4859  -0.4762  -0.4707  -0.4665  -0.4659  -0.4617
 -0.4581  -0.4490  -0.4417  -0.4388  -0.4345  -0.4313  -0.4297  -0.4196
 -0.4145  -0.4120  -0.4101  -0.3954  -0.3852  -0.3833  -0.3710  -0.3674
 -0.3585  -0.3551  -0.3473  -0.3447  -0.3231  -0.3218  -0.3193  -0.3024
 -0.2957  -0.2617  -0.2505  -0.2394  -0.2310  -0.1918  -0.1849

          Ground-State Mulliken Net Atomic Charges

     Atom                 Charge (a.u.)
  ----------------------------------------
      1 C                    -0.211786
      2 O                    -0.512223
      3 C                     0.385529
      4 C                    -0.217312
      5 C                    -0.207572
      6 C                    -0.251967
      7 C                     0.327377
      8 C                     0.066805
      9 C                     0.066250
     10 C                    -0.207671
     11 C                    -0.216859
     12 C                     0.385643
     13 O                    -0.511971
     14 C                    -0.211793
     15 C                    -0.251781
     16 C                     0.326642
     17 N                    -0.752990
     18 C                     0.292980
     19 C                    -0.160077
     20 C                    -0.208931
     21 C                     0.204511
     22 C                    -0.299329
     23 C                     0.543743
     24 F                    -0.234426
     25 F                    -0.248166
     26 C                    -0.208780
     27 C                    -0.160390
     28 H                     0.166325
     29 H                     0.148719
     30 H                     0.149632
     31 H                     0.123310
     32 H                     0.128765
     33 H                     0.144833
     34 H                     0.128709
     35 H                     0.123261
     36 H                     0.166595
     37 H                     0.148872
     38 H                     0.149398
     39 H                     0.145673
     40 H                     0.155352
     41 H                     0.134195
     42 H                     0.160530
     43 H                     0.144618
     44 H                     0.155758
  ----------------------------------------
  Sum of atomic charges =     0.000000

                    Cartesian Multipole Moments
 -----------------------------------------------------------------
    Charge (ESU x 10^10)
                 0.0000
    Dipole Moment (Debye)
         X       1.7665      Y      -0.1649      Z       0.4145
       Tot       1.8220
    Quadrupole Moments (Debye-Ang)
        XX    -142.5420     XY       0.4925     YY    -129.1014
        XZ      -3.3634     YZ      -3.1806     ZZ    -153.5083

 Total job time:  152.44s(wall), 152.01s(cpu)
        *  Thank you very much for using Q-Chem.  Have a nice day.  *
