 Q-Chem 5.2, Q-Chem, Inc., Pleasanton, CA (2019)
 Q-Chem 5.2.1 for Intel X86 EM64T Linux

User input:
--------------------------------------------------------------
$molecule
0 1
C         0.40661371500000    2.84211877100000   -0.52040576720000
C         1.35646611040000    2.12177172960000    0.06112629520000
C         1.42263151140000    0.66176641060000    0.09816593210000
N         2.65625362750000    0.17114748800000    0.02123803110000
C         2.83962244420000   -1.13143684940000   -0.03246073350000
C         1.79383440280000   -2.04394688160000   -0.00801004520000
C         0.50855334380000   -1.55504449860000    0.13222245890000
C         0.29325217110000   -0.17769959520000    0.19829807150000
C        -1.03182968730000    0.37471699500000    0.44415609190000
C        -2.18275612090000   -0.16291889050000    0.07253434460000
F        -2.36087607850000   -1.27004552070000   -0.64062722780000
F        -3.37003881360000    0.37439945040000    0.34550013480000
H         0.45208853130000    3.91782401980000   -0.53636768890000
H        -0.43034244180000    2.39412883040000   -1.02976122660000
H         2.22316695040000    2.60562908630000    0.49066492470000
H         3.87009926460000   -1.45554464560000   -0.09523387110000
H         1.98106066410000   -3.10422517560000   -0.06860233070000
H        -0.32434459510000   -2.23673703170000    0.21250088510000
H        -1.08779063110000    1.30831463290000    0.98418214450000
$end

$rem
BASIS = 6-31G*
GUI = 2
METHOD = B3LYP
PRINT_ORBITALS false
MOLDEN_FORMAT false
--------------------------------------------------------------

             Standard Nuclear Orientation (Angstroms)
    I     Atom           X                Y                Z
 ----------------------------------------------------------------
    1      C      -0.2689490432    -2.8287231540    -0.4973388921
    2      C      -1.2350489590    -2.1260880001     0.0790756860
    3      C      -1.3357193061    -0.6677928556     0.1036943657
    4      N      -2.5806789487    -0.2071779873     0.0239586406
    5      C      -2.7948774152     1.0901942280    -0.0406787193
    6      C      -1.7709589635     2.0273691724    -0.0252142360
    7      C      -0.4743371271     1.5702358541     0.1177509301
    8      C      -0.2264343025     0.1989885153     0.1953685184
    9      C       1.1115779193    -0.3197907214     0.4444540152
   10      C       2.2491131319     0.2417174988     0.0669505283
   11      F       2.4003202917     1.3465876940    -0.6558591074
   12      F       3.4490324811    -0.2649960750     0.3431686016
   13      H      -0.2889643612    -3.9053005812    -0.5040437020
   14      H       0.5566988589    -2.3654432547    -1.0114506076
   15      H      -2.0896578347    -2.6266127024     0.5137139423
   16      H      -3.8327944665     1.3892787667    -0.1050638197
   17      H      -1.9832848742     3.0823616758    -0.0946669839
   18      H       0.3422657834     2.2721083739     0.1912557899
   19      H       1.1901189731    -1.2471341643     0.9923862701
 ----------------------------------------------------------------

    9    -601.5477490226      4.89e-06  Convergence criterion met
 Total energy in the final basis set =     -601.5477490226

                    Orbital Energies (a.u.)
 --------------------------------------------------------------

 Alpha MOs
 -- Occupied --
-24.7459 -24.7378 -14.3262 -10.3600 -10.2307 -10.2206 -10.2157 -10.2073
-10.2060 -10.1985 -10.1934 -10.1883  -1.2878  -1.2275  -0.9531  -0.8385
 -0.8078  -0.7769  -0.7396  -0.6626  -0.6403  -0.6223  -0.5844  -0.5694
 -0.5334  -0.5223  -0.5052  -0.5007  -0.4663  -0.4529  -0.4446  -0.4380
 -0.4290  -0.4218  -0.4046  -0.4042  -0.3823  -0.3579  -0.3140  -0.3027
 -0.2652  -0.2542  -0.2255

          Ground-State Mulliken Net Atomic Charges

     Atom                 Charge (a.u.)
  ----------------------------------------
      1 C                    -0.343315
      2 C                    -0.093113
      3 C                     0.217893
      4 N                    -0.474228
      5 C                     0.042790
      6 C                    -0.147250
      7 C                    -0.146703
      8 C                     0.134468
      9 C                    -0.328974
     10 C                     0.552595
     11 F                    -0.238058
     12 F                    -0.246140
     13 H                     0.150456
     14 H                     0.158892
     15 H                     0.151324
     16 H                     0.140849
     17 H                     0.138780
     18 H                     0.148304
     19 H                     0.181431
  ----------------------------------------
  Sum of atomic charges =     0.000000

                    Cartesian Multipole Moments
 -----------------------------------------------------------------
    Charge (ESU x 10^10)
                 0.0000
    Dipole Moment (Debye)
         X       0.4583      Y       0.5958      Z       0.3105
       Tot       0.8133
    Quadrupole Moments (Debye-Ang)
        XX     -72.0173     XY      -4.2328     YY     -59.1770
        XZ      -0.3397     YZ      -0.0813     ZZ     -68.1188

 Total job time:  24.24s(wall), 23.49s(cpu)
        *  Thank you very much for using Q-Chem.  Have a nice day.  *
