 Q-Chem 5.2, Q-Chem, Inc., Pleasanton, CA (2019)
 Q-Chem 5.2.1 for Intel X86 EM64T Linux

User input:
--------------------------------------------------------------
$molecule
0 1
C        -4.61557146740000   -0.90736242390000    0.41882860810000
C        -3.69009221540000   -0.28964665010000   -0.30271513910000
C        -2.24900022790000   -0.40171808060000   -0.08383896180000
C        -1.70521468600000   -1.61839230780000    0.33059983100000
C        -0.34629054380000   -1.79041336400000    0.47900682550000
C         0.50367966810000   -0.73122569260000    0.18968443170000
O         1.87666069530000   -1.00920995210000    0.35318694870000
C         2.77932608960000   -0.09056495190000    0.09802119920000
F         2.68386599550000    1.01473516000000    0.86144464860000
F         3.98773553790000   -0.59937204630000    0.31990420020000
F         2.77956158820000    0.35522500050000   -1.17292762110000
C         0.00099065720000    0.48190608290000   -0.22935560440000
C        -1.37862703500000    0.66707559950000   -0.35113429080000
C        -1.83970245540000    2.00047945530000   -0.73391006730000
C        -2.92762230890000    2.60154302480000   -0.27100719240000
H        -5.66380900200000   -0.80710613780000    0.19592792960000
H        -4.36602351590000   -1.51487230990000    1.27271542780000
H        -3.98518181710000    0.34775167110000   -1.12649547350000
H        -2.36626883520000   -2.45021534080000    0.51814090030000
H         0.07497370260000   -2.72878882650000    0.79906144290000
H         0.64840615600000    1.31582050570000   -0.45231118090000
H        -1.18271204110000    2.53228519380000   -1.41109776110000
H        -3.57668885040000    2.13441606230000    0.45013580920000
H        -3.19096934350000    3.59903113210000   -0.57935497340000
$end

$rem
BASIS = 6-31G*
GUI = 2
METHOD = B3LYP
PRINT_ORBITALS false
MOLDEN_FORMAT false
--------------------------------------------------------------

             Standard Nuclear Orientation (Angstroms)
    I     Atom           X                Y                Z
 ----------------------------------------------------------------
    1      C       4.4062666808    -1.2225099974    -0.2406667269
    2      C       3.5292542881    -0.4023233986     0.3222304293
    3      C       2.0795977014    -0.4875219027     0.1535594522
    4      C       1.4679381496    -1.7376667976     0.0497869215
    5      C       0.0991267734    -1.8684554656    -0.0370488122
    6      C      -0.6915458604    -0.7276037572    -0.0005865365
    7      O      -2.0798701549    -0.9639997048    -0.0764669159
    8      C      -2.9307640496     0.0351917074    -0.0387958148
    9      F      -2.8004065135     0.9191929803    -1.0463497798
   10      F      -4.1672971132    -0.4476198094    -0.1178473293
   11      F      -2.8789973966     0.7714311839     1.0878413441
   12      C      -0.1209837165     0.5223692822     0.1089841658
   13      C       1.2684870324     0.6584477079     0.1665730092
   14      C       1.8024312271     2.0185445096     0.2125509169
   15      C       2.9066770947     2.4333389547    -0.3938422938
   16      H       5.4631661024    -1.1271361712    -0.0606516991
   17      H       4.1072779481    -2.0026405690    -0.9207161159
   18      H       3.8744389127     0.3971878218     0.9653462164
   19      H       2.0833845719    -2.6237934539     0.0597392790
   20      H      -0.3744933750    -2.8326465019    -0.1174641879
   21      H      -0.7218609036     1.4182773529     0.1327458311
   22      H       1.1883069780     2.7307024072     0.7498771271
   23      H       3.5149564189     1.7737925768    -0.9892724260
   24      H       3.2251818688     3.4603499279    -0.3371350757
 ----------------------------------------------------------------

    9    -799.2937516009      3.41e-06  Convergence criterion met
 Total energy in the final basis set =     -799.2937516009

                    Orbital Energies (a.u.)
 --------------------------------------------------------------

 Alpha MOs
 -- Occupied --
-24.7299 -24.7280 -24.7278 -19.2247 -10.4823 -10.2720 -10.2115 -10.2053
-10.2032 -10.2029 -10.2015 -10.2000 -10.1944 -10.1895 -10.1837  -1.3266
 -1.2263  -1.2212  -1.1220  -0.8857  -0.8171  -0.7990  -0.7523  -0.7483
 -0.6979  -0.6524  -0.6432  -0.6139  -0.6022  -0.5929  -0.5788  -0.5475
 -0.5073  -0.5033  -0.4739  -0.4724  -0.4702  -0.4614  -0.4459  -0.4417
 -0.4385  -0.4357  -0.4212  -0.4106  -0.4056  -0.4017  -0.3894  -0.3842
 -0.3668  -0.3599  -0.3470  -0.3030  -0.2908  -0.2515  -0.2264

          Ground-State Mulliken Net Atomic Charges

     Atom                 Charge (a.u.)
  ----------------------------------------
      1 C                    -0.347100
      2 C                    -0.137205
      3 C                     0.111849
      4 C                    -0.188527
      5 C                    -0.166666
      6 C                     0.342747
      7 O                    -0.520156
      8 C                     0.973474
      9 F                    -0.276188
     10 F                    -0.252860
     11 F                    -0.276994
     12 C                    -0.229889
     13 C                     0.088830
     14 C                    -0.136676
     15 C                    -0.339624
     16 H                     0.145043
     17 H                     0.143477
     18 H                     0.151716
     19 H                     0.142210
     20 H                     0.152755
     21 H                     0.163032
     22 H                     0.141446
     23 H                     0.166608
     24 H                     0.148700
  ----------------------------------------
  Sum of atomic charges =     0.000000

                    Cartesian Multipole Moments
 -----------------------------------------------------------------
    Charge (ESU x 10^10)
                 0.0000
    Dipole Moment (Debye)
         X       2.4363      Y      -0.0550      Z       0.0860
       Tot       2.4384
    Quadrupole Moments (Debye-Ang)
        XX     -84.6081     XY       0.6669     YY     -76.9331
        XZ      -0.7145     YZ       1.7537     ZZ     -86.2824

 Total job time:  38.78s(wall), 38.65s(cpu)
        *  Thank you very much for using Q-Chem.  Have a nice day.  *
