 Q-Chem 5.2, Q-Chem, Inc., Pleasanton, CA (2019)
 Q-Chem 5.2.1 for Intel X86 EM64T Linux

User input:
--------------------------------------------------------------
$molecule
0 1
C        -3.30055715410000   -0.58272662070000    0.34931180670000
C        -2.67826314880000    0.44884825520000   -0.20495591850000
C        -1.24668233100000    0.73732422490000   -0.12229843280000
C        -0.87004979070000    2.07701855390000   -0.01612487240000
C         0.45520536250000    2.42359723900000    0.12170924110000
C         1.43426894770000    1.44330906770000    0.13448563280000
C         1.08649391980000    0.10517766140000    0.00686452480000
O         2.00185727320000   -0.90557445310000   -0.03001878950000
C         3.36917264740000   -0.58364854310000   -0.04946339050000
C        -0.26760544720000   -0.26615732570000   -0.12303690880000
C        -0.63823117040000   -1.66379603450000   -0.35361601390000
C        -0.10813254400000   -2.72125005470000    0.24338094230000
H        -4.36760712240000   -0.70563581800000    0.26587003600000
H        -2.77484262370000   -1.32697060010000    0.92248512570000
H        -3.25971956070000    1.20198967380000   -0.72438385290000
H        -1.63282044680000    2.84180268480000   -0.02452049920000
H         0.74087357890000    3.46087337900000    0.21564150930000
H         2.46674065220000    1.73683077500000    0.23794116220000
H         3.89094701100000   -1.53419307770000   -0.15335304970000
H         3.68633532740000   -0.10085953730000    0.88133366800000
H         3.62238943730000    0.06098142880000   -0.89769281520000
H        -1.42849444200000   -1.80220794600000   -1.08284932020000
H         0.65165024010000   -2.63164888160000    0.99904014160000
H        -0.43019613680000   -3.72036265360000    0.00078402380000
$end

$rem
BASIS = 6-31G*
GUI = 2
METHOD = B3LYP
PRINT_ORBITALS false
MOLDEN_FORMAT false
--------------------------------------------------------------

             Standard Nuclear Orientation (Angstroms)
    I     Atom           X                Y                Z
 ----------------------------------------------------------------
    1      C       3.2642851341    -0.7812457680    -0.3399907596
    2      C       2.7093211350     0.2915626228     0.2074636962
    3      C       1.2992144705     0.6707569370     0.1221106079
    4      C       1.0093255805     2.0311637012     0.0073776230
    5      C      -0.2909342517     2.4611749391    -0.1334447938
    6      C      -1.3308649488     1.5456508122    -0.1407493711
    7      C      -1.0696788470     0.1887887386    -0.0045972086
    8      O      -2.0480063617    -0.7609123656     0.0379864882
    9      C      -3.3918578151    -0.3518230140     0.0545662974
   10      C       0.2577794768    -0.2678271516     0.1284647251
   11      C       0.5379278190    -1.6848961161     0.3679570356
   12      C      -0.0587773203    -2.7098720772    -0.2227934871
   13      H       4.3212329744    -0.9718284946    -0.2551124836
   14      H       2.6920423706    -1.4937954599    -0.9088612881
   15      H       3.3377742257     1.0090800811     0.7225698448
   16      H       1.8195850232     2.7454794144     0.0115037069
   17      H      -0.5094495653     3.5140334456    -0.2340003238
   18      H      -2.3423560819     1.9041482701    -0.2466791601
   19      H      -3.9735602385    -1.2662717551     0.1640297643
   20      H      -3.6771794420     0.1444989501    -0.8794126268
   21      H      -3.6033961498     0.3130037090     0.8986140814
   22      H       1.3175145901    -1.8691636568     1.0985356080
   23      H      -0.8110715256    -2.5764339871    -0.9794749125
   24      H       0.1984721145    -3.7260533368     0.0262096935
 ----------------------------------------------------------------

    9    -501.5575461982      1.94e-06  Convergence criterion met
 Total energy in the final basis set =     -501.5575461982

                    Orbital Energies (a.u.)
 --------------------------------------------------------------

 Alpha MOs
 -- Occupied --
-19.1744 -10.2436 -10.2384 -10.1908 -10.1879 -10.1854 -10.1844 -10.1815
-10.1759 -10.1759 -10.1747 -10.1640  -1.0659  -0.8609  -0.7919  -0.7803
 -0.7363  -0.7183  -0.6943  -0.6270  -0.6001  -0.5648  -0.5522  -0.5159
 -0.4886  -0.4761  -0.4692  -0.4591  -0.4450  -0.4295  -0.4190  -0.4090
 -0.3773  -0.3734  -0.3658  -0.3574  -0.3470  -0.3209  -0.3124  -0.2817
 -0.2722  -0.2169  -0.2085

          Ground-State Mulliken Net Atomic Charges

     Atom                 Charge (a.u.)
  ----------------------------------------
      1 C                    -0.338508
      2 C                    -0.142639
      3 C                     0.100639
      4 C                    -0.190182
      5 C                    -0.131544
      6 C                    -0.196208
      7 C                     0.324259
      8 O                    -0.500924
      9 C                    -0.214462
     10 C                     0.039645
     11 C                    -0.132022
     12 C                    -0.324259
     13 H                     0.140056
     14 H                     0.164181
     15 H                     0.131866
     16 H                     0.121871
     17 H                     0.127749
     18 H                     0.129018
     19 H                     0.168783
     20 H                     0.149146
     21 H                     0.150592
     22 H                     0.143615
     23 H                     0.147518
     24 H                     0.131811
  ----------------------------------------
  Sum of atomic charges =     0.000000

                    Cartesian Multipole Moments
 -----------------------------------------------------------------
    Charge (ESU x 10^10)
                 0.0000
    Dipole Moment (Debye)
         X      -1.2252      Y       0.7404      Z       0.0390
       Tot       1.4320
    Quadrupole Moments (Debye-Ang)
        XX     -59.1736     XY      -1.0147     YY     -67.0921
        XZ       1.6926     YZ       0.6007     ZZ     -73.2490

 Total job time:  34.24s(wall), 34.12s(cpu)
        *  Thank you very much for using Q-Chem.  Have a nice day.  *
