 Q-Chem 5.2, Q-Chem, Inc., Pleasanton, CA (2019)
 Q-Chem 5.2.1 for Intel X86 EM64T Linux

User input:
--------------------------------------------------------------
$molecule
0 1
C        -0.25907677470000   -0.02193176290000   -2.50896421110000
C        -0.66507262360000   -1.05839880880000   -1.79012151990000
C        -1.54541405680000   -0.99725894040000   -0.62111369450000
C        -2.49871959550000   -2.00319708510000   -0.46669079040000
C        -3.40677284190000   -1.98093066730000    0.57383694920000
C        -3.37216896300000   -0.94616369610000    1.49384843180000
C        -2.41831181860000    0.04665475370000    1.37002857830000
C        -1.49364881250000    0.03206996900000    0.33028487940000
C        -0.47194838900000    1.09689282920000    0.29560845750000
C        -0.88138930650000    2.42375211100000    0.23252146150000
C         0.04232647630000    3.45216884560000    0.19745023820000
C         1.39580224630000    3.16104152700000    0.23665868570000
C         1.81899509140000    1.84801528480000    0.31878438600000
C         0.89963203880000    0.80145093000000    0.35149603580000
C         1.32202749580000   -0.58802839200000    0.48443621740000
C         2.47486914190000   -1.10493950490000    0.09364564860000
F         3.47657233810000   -0.48406393620000   -0.52032056350000
F         2.79696573430000   -2.38873005600000    0.25289268240000
H         0.36135389960000   -0.15157499870000   -3.37928830800000
H        -0.53423030360000    0.99027775630000   -2.26672372830000
H        -0.39605507750000   -2.06103671940000   -2.10120114800000
H        -2.53202250870000   -2.80466720910000   -1.19106638260000
H        -4.13993306160000   -2.76817538440000    0.66789322280000
H        -4.07869227570000   -0.91815172620000    2.30991945130000
H        -2.36827525290000    0.84223586340000    2.09991773380000
H        -1.93897558270000    2.64261647100000    0.19137631130000
H        -0.29267223460000    4.47714330700000    0.14039081750000
H         2.12322511200000    3.95831161420000    0.21129714760000
H         2.87439980380000    1.63417934490000    0.37593267640000
H         0.62215544700000   -1.27885303380000    0.93111070320000
$end

$rem
BASIS = 6-31G*
GUI = 2
METHOD = B3LYP
PRINT_ORBITALS false
MOLDEN_FORMAT false
--------------------------------------------------------------

             Standard Nuclear Orientation (Angstroms)
    I     Atom           X                Y                Z
 ----------------------------------------------------------------
    1      C       0.0214573432    -0.3789605879    -2.4812538472
    2      C      -0.7452323419    -1.1275734668    -1.7017687187
    3      C      -1.6638437461    -0.6321011236    -0.6741604939
    4      C      -2.8898684413    -1.2796271842    -0.5254228664
    5      C      -3.8353324395    -0.8326538749     0.3768338363
    6      C      -3.5658399252     0.2763948583     1.1615286389
    7      C      -2.3460277492     0.9161139212     1.0445625829
    8      C      -1.3825346544     0.4716677129     0.1443237400
    9      C      -0.0841890397     1.1733624004     0.1152520410
   10      C      -0.0588231852     2.5354513149    -0.1608779103
   11      C       1.1355289518     3.2313026873    -0.1987679954
   12      C       2.3250268061     2.5677757502     0.0522617563
   13      C       2.3152598989     1.2176798345     0.3472538808
   14      C       1.1196637349     0.5030639597     0.3855864720
   15      C       1.0811584685    -0.9110970077     0.7397190786
   16      C       2.0491588510    -1.7957848478     0.5686608627
   17      F       3.2433088846    -1.5969779522     0.0206355073
   18      F       1.9457738117    -3.0768569605     0.9227650671
   19      H       0.6463650737    -0.8170401894    -3.2407156401
   20      H       0.0503970309     0.6942263605    -2.4013145260
   21      H      -0.7709632035    -2.2005927769    -1.8514057388
   22      H      -3.1037197192    -2.1385603229    -1.1456526113
   23      H      -4.7802318063    -1.3473154202     0.4685585086
   24      H      -4.2987589550     0.6352585600     1.8686200828
   25      H      -2.1186180172     1.7654608436     1.6731210595
   26      H      -0.9899995610     3.0441600392    -0.3663268187
   27      H       1.1381283784     4.2876609938    -0.4227164976
   28      H       3.2615021563     3.1042082932     0.0261682622
   29      H       3.2445007057     0.7168312030     0.5675559788
   30      H       0.1662784587    -1.2898694493     1.1711164265
 ----------------------------------------------------------------

    9    -816.5586670097      5.20e-06  Convergence criterion met
 Total energy in the final basis set =     -816.5586670097

                    Orbital Energies (a.u.)
 --------------------------------------------------------------

 Alpha MOs
 -- Occupied --
-24.7364 -24.7281 -10.3488 -10.2013 -10.1973 -10.1964 -10.1948 -10.1936
-10.1893 -10.1888 -10.1883 -10.1882 -10.1870 -10.1867 -10.1861 -10.1858
-10.1853 -10.1756  -1.2780  -1.2175  -0.8812  -0.8558  -0.8031  -0.7913
 -0.7781  -0.7358  -0.7321  -0.7187  -0.6426  -0.6312  -0.6168  -0.6003
 -0.5899  -0.5680  -0.5545  -0.5281  -0.5135  -0.5106  -0.4917  -0.4745
 -0.4692  -0.4518  -0.4450  -0.4355  -0.4315  -0.4287  -0.4235  -0.4200
 -0.4164  -0.4030  -0.3794  -0.3764  -0.3675  -0.3628  -0.3470  -0.3383
 -0.3340  -0.3031  -0.2772  -0.2647  -0.2437  -0.2271  -0.2154

          Ground-State Mulliken Net Atomic Charges

     Atom                 Charge (a.u.)
  ----------------------------------------
      1 C                    -0.328826
      2 C                    -0.137985
      3 C                     0.133501
      4 C                    -0.196811
      5 C                    -0.120506
      6 C                    -0.133053
      7 C                    -0.162489
      8 C                    -0.004213
      9 C                    -0.012299
     10 C                    -0.171894
     11 C                    -0.131958
     12 C                    -0.125952
     13 C                    -0.203239
     14 C                     0.185395
     15 C                    -0.317303
     16 C                     0.552679
     17 F                    -0.239387
     18 F                    -0.251056
     19 H                     0.141968
     20 H                     0.159961
     21 H                     0.133057
     22 H                     0.130182
     23 H                     0.130271
     24 H                     0.130452
     25 H                     0.135900
     26 H                     0.133667
     27 H                     0.128550
     28 H                     0.129180
     29 H                     0.136134
     30 H                     0.176074
  ----------------------------------------
  Sum of atomic charges =     0.000000

                    Cartesian Multipole Moments
 -----------------------------------------------------------------
    Charge (ESU x 10^10)
                 0.0000
    Dipole Moment (Debye)
         X      -0.9744      Y       0.7614      Z       0.0270
       Tot       1.2369
    Quadrupole Moments (Debye-Ang)
        XX     -96.0590     XY       4.5206     YY     -96.9540
        XZ      -2.7862     YZ       1.8985     ZZ    -101.6407

 Total job time:  77.03s(wall), 76.81s(cpu)
        *  Thank you very much for using Q-Chem.  Have a nice day.  *
