 Q-Chem 5.2, Q-Chem, Inc., Pleasanton, CA (2019)
 Q-Chem 5.2.1 for Intel X86 EM64T Linux

User input:
--------------------------------------------------------------
$molecule
0 1
C        -3.61407394240000    0.34530949980000   -0.20458619960000
C        -2.50906843560000   -0.14497548670000    0.34026080400000
C        -1.16600589670000    0.39585162920000    0.13455813780000
C        -0.99185106040000    1.77552272490000    0.01811932840000
C         0.26872716830000    2.31840466670000   -0.09819886800000
C         1.39002885970000    1.50310196080000   -0.08921849760000
C         1.24175483570000    0.12927918010000    0.02766495730000
O         2.28315735460000   -0.75446922150000    0.03407509470000
C         3.59307321920000   -0.25493486250000   -0.05886606270000
C        -0.04292376740000   -0.44196159470000    0.12783780160000
C        -0.13269953370000   -1.89786863830000    0.21014160680000
C        -1.05905630360000   -2.64687852490000   -0.37277251480000
H        -4.58248842060000   -0.07710454870000    0.00315456290000
H        -3.59366269250000    1.17125497930000   -0.89614945890000
H        -2.56861400000000   -1.00351176810000    0.99733225330000
H        -1.85681953130000    2.41999924820000    0.04641209200000
H         0.39311112290000    3.38763360710000   -0.18695055210000
H         2.36726740280000    1.95139191150000   -0.17276399290000
H         4.24302387930000   -1.12828565040000   -0.02457525600000
H         3.83471046390000    0.40735111700000    0.77920708800000
H         3.75586147250000    0.27735750320000   -1.00183615810000
H         0.67269803780000   -2.36790772280000    0.75965089830000
H        -1.83850593890000   -2.22223840550000   -0.98311393290000
H        -1.05553948270000   -3.71984060270000   -0.27765629830000
$end

$rem
BASIS = 6-31G*
GUI = 2
METHOD = B3LYP
PRINT_ORBITALS false
MOLDEN_FORMAT false
--------------------------------------------------------------

             Standard Nuclear Orientation (Angstroms)
    I     Atom           X                Y                Z
 ----------------------------------------------------------------
    1      C      -3.6092418621    -0.3920413105     0.1888386461
    2      C      -2.5085282587     0.1128448364    -0.3513412659
    3      C      -1.1599545267    -0.4136555835    -0.1445303937
    4      C      -0.9705467701    -1.7917374413    -0.0331960742
    5      C       0.2957853528    -2.3208604169     0.0840217899
    6      C       1.4078489899    -1.4929581060     0.0810446950
    7      C       1.2443872808    -0.1204310302    -0.0306945411
    8      O       2.2757797814     0.7750023486    -0.0310221562
    9      C       3.5910139036     0.2898735200     0.0631130154
   10      C      -0.0464017768     0.4367123385    -0.1317124125
   11      C      -0.1523766882     1.8918367818    -0.2084007213
   12      C      -1.0885064503     2.6280142584     0.3752475804
   13      H      -4.5818534636     0.0202798657    -0.0195705061
   14      H      -3.5811832071    -1.2204878411     0.8771346244
   15      H      -2.5761684093     0.9733001885    -1.0051107262
   16      H      -1.8281294433    -2.4457900641    -0.0661816834
   17      H       0.4319944055    -3.3889708539     0.1687917420
   18      H       2.3898730420    -1.9305529891     0.1651777982
   19      H       4.2311644259     1.1706162184     0.0339081057
   20      H       3.8421036472    -0.3662642872    -0.7770149517
   21      H       3.7575296960    -0.2443524646     1.0043371476
   22      H       0.6489881097     2.3731248174    -0.7540551339
   23      H      -1.8645821930     2.1921686146     0.9819786807
   24      H      -1.0968500256     3.7013229258     0.2844402437
 ----------------------------------------------------------------

    9    -501.5617812921      2.65e-06  Convergence criterion met
 Total energy in the final basis set =     -501.5617812921

                    Orbital Energies (a.u.)
 --------------------------------------------------------------

 Alpha MOs
 -- Occupied --
-19.1786 -10.2439 -10.2406 -10.1911 -10.1878 -10.1849 -10.1823 -10.1818
-10.1809 -10.1752 -10.1718 -10.1716  -1.0686  -0.8617  -0.7922  -0.7826
 -0.7401  -0.7169  -0.6935  -0.6284  -0.6048  -0.5640  -0.5498  -0.5150
 -0.4968  -0.4773  -0.4720  -0.4550  -0.4472  -0.4344  -0.4171  -0.4046
 -0.3853  -0.3770  -0.3681  -0.3530  -0.3449  -0.3247  -0.3149  -0.2834
 -0.2761  -0.2179  -0.2101

          Ground-State Mulliken Net Atomic Charges

     Atom                 Charge (a.u.)
  ----------------------------------------
      1 C                    -0.347595
      2 C                    -0.134373
      3 C                     0.099305
      4 C                    -0.184109
      5 C                    -0.133973
      6 C                    -0.195299
      7 C                     0.330071
      8 O                    -0.505894
      9 C                    -0.214173
     10 C                     0.013364
     11 C                    -0.108856
     12 C                    -0.344832
     13 H                     0.139452
     14 H                     0.140819
     15 H                     0.148884
     16 H                     0.125663
     17 H                     0.128088
     18 H                     0.129087
     19 H                     0.169077
     20 H                     0.150976
     21 H                     0.152229
     22 H                     0.144758
     23 H                     0.158166
     24 H                     0.139162
  ----------------------------------------
  Sum of atomic charges =     0.000000

                    Cartesian Multipole Moments
 -----------------------------------------------------------------
    Charge (ESU x 10^10)
                 0.0000
    Dipole Moment (Debye)
         X       1.5681      Y      -0.5925      Z       0.0050
       Tot       1.6763
    Quadrupole Moments (Debye-Ang)
        XX     -59.4710     XY      -1.6692     YY     -66.9193
        XZ      -0.4926     YZ      -1.6360     ZZ     -73.3904

 Total job time:  33.59s(wall), 33.48s(cpu)
        *  Thank you very much for using Q-Chem.  Have a nice day.  *
