 Q-Chem 5.2, Q-Chem, Inc., Pleasanton, CA (2019)
 Q-Chem 5.2.1 for Intel X86 EM64T Linux

User input:
--------------------------------------------------------------
$molecule
0 1
C         2.71421619790000   -2.52458545200000    0.16407122330000
C         2.50070244070000   -1.24260700840000   -0.10292269230000
C         1.21617403730000   -0.54997110450000   -0.05427302740000
C         1.20628099600000    0.84323312400000   -0.08654599030000
C         0.00002299820000    1.53520649710000   -0.02323363490000
C         0.00029597260000    2.94988341400000   -0.04497449380000
N         0.00098945560000    4.09610284550000   -0.06253829850000
C        -1.20634589800000    0.84571714830000    0.06130753620000
C        -1.21640678130000   -0.54781679400000    0.07182798270000
C        -2.50095633560000   -1.23864048600000    0.14174636680000
C        -2.71482261300000   -2.52743858800000   -0.08972550760000
C        -0.00018400570000   -1.22585961620000    0.01922850100000
H         3.70155991030000   -2.94950367700000    0.10924078220000
H         1.92802302670000   -3.19934382750000    0.45706372120000
H         3.34097602180000   -0.61251400090000   -0.36729301950000
H         2.13396170280000    1.39385954910000   -0.14955764460000
H        -2.13395680840000    1.39813455780000    0.10735529160000
H        -3.34077589040000   -0.60144825470000    0.39003681460000
H        -1.92899393560000   -3.20985040350000   -0.36549204920000
H        -3.70200878660000   -2.95079375160000   -0.02163574820000
H        -0.00034478410000   -2.30339054370000    0.03599417770000
$end

$rem
BASIS = 6-31G*
GUI = 2
METHOD = B3LYP
PRINT_ORBITALS false
MOLDEN_FORMAT false
--------------------------------------------------------------

             Standard Nuclear Orientation (Angstroms)
    I     Atom           X                Y                Z
 ----------------------------------------------------------------
    1      C       2.4472614036    -2.7135497669    -0.1520200058
    2      C       1.1614540589    -2.5020792805     0.0976243630
    3      C       0.4699784729    -1.2168555025     0.0508711935
    4      C      -0.9235515664    -1.2066949956     0.0621951687
    5      C      -1.6141643368     0.0004025991     0.0000392441
    6      C      -3.0290082750     0.0005076602     0.0004108150
    7      N      -4.1753623842     0.0001209900     0.0006559624
    8      C      -0.9231513515     1.2072419241    -0.0624794192
    9      C       0.4703851873     1.2168252862    -0.0518575660
   10      C       1.1625325816     2.5017006061    -0.0989840790
   11      C       2.4477450542     2.7127983507     0.1539688878
   12      C       1.1472281202    -0.0001279179    -0.0007189573
   13      H       2.8710366590    -3.7015509129    -0.1002730244
   14      H       3.1265803000    -1.9248578452    -0.4272182275
   15      H       0.5272131678    -3.3445926426     0.3443596176
   16      H      -1.4753171180    -2.1347097752     0.1079637980
   17      H      -1.4745600097     2.1354815427    -0.1079447162
   18      H       0.5293898499     3.3441312275    -0.3487837989
   19      H       3.1257017623     1.9240733621     0.4324421825
   20      H       2.8723466189     3.7004174363     0.1017730611
   21      H       2.2248893649    -0.0002530992    -0.0012084977
 ----------------------------------------------------------------

    9    -479.2875511124      3.80e-06  Convergence criterion met
 Total energy in the final basis set =     -479.2875511124

                    Orbital Energies (a.u.)
 --------------------------------------------------------------

 Alpha MOs
 -- Occupied --
-14.3307 -10.2368 -10.2226 -10.2187 -10.2186 -10.2156 -10.2156 -10.2101
-10.2060 -10.2060 -10.1961 -10.1961  -0.9138  -0.8898  -0.8240  -0.8117
 -0.7568  -0.7476  -0.6702  -0.6430  -0.6162  -0.5721  -0.5328  -0.5055
 -0.5047  -0.4863  -0.4614  -0.4420  -0.4286  -0.4137  -0.4018  -0.3841
 -0.3782  -0.3630  -0.3581  -0.3550  -0.3342  -0.3325  -0.2934  -0.2496
 -0.2421

          Ground-State Mulliken Net Atomic Charges

     Atom                 Charge (a.u.)
  ----------------------------------------
      1 C                    -0.345782
      2 C                    -0.116036
      3 C                     0.177596
      4 C                    -0.213829
      5 C                     0.158732
      6 C                     0.216883
      7 N                    -0.471673
      8 C                    -0.213791
      9 C                     0.177499
     10 C                    -0.116114
     11 C                    -0.345700
     12 C                    -0.234830
     13 H                     0.153401
     14 H                     0.148172
     15 H                     0.137638
     16 H                     0.156349
     17 H                     0.156329
     18 H                     0.137676
     19 H                     0.148173
     20 H                     0.153395
     21 H                     0.135914
  ----------------------------------------
  Sum of atomic charges =     0.000000

                    Cartesian Multipole Moments
 -----------------------------------------------------------------
    Charge (ESU x 10^10)
                 0.0000
    Dipole Moment (Debye)
         X       4.7005      Y       0.0006      Z      -0.0010
       Tot       4.7005
    Quadrupole Moments (Debye-Ang)
        XX     -84.7764     XY       0.0017     YY     -59.0790
        XZ       0.0088     YZ      -0.9646     ZZ     -72.7134

 Total job time:  25.12s(wall), 25.03s(cpu)
        *  Thank you very much for using Q-Chem.  Have a nice day.  *
