 Q-Chem 5.2, Q-Chem, Inc., Pleasanton, CA (2019)
 Q-Chem 5.2.1 for Intel X86 EM64T Linux

User input:
--------------------------------------------------------------
$molecule
0 1
C        -3.95060996790000   -0.50388565290000    0.33463024900000
C        -2.92244610240000   -1.22784094750000   -0.10038300750000
C        -1.53489315210000   -0.83909782500000   -0.08575980460000
N        -0.56338136080000   -1.81343017790000   -0.06592024920000
C         0.65352837640000   -1.23885500980000   -0.02153889520000
N         1.82224322110000   -1.92291335730000    0.00978342000000
C         2.87034652840000   -1.17684177250000    0.02858228960000
N         2.84146322630000    0.17580696020000    0.02169235760000
C         1.67596569980000    0.97274877520000   -0.00291434250000
O         1.80724614810000    2.17854594350000    0.00524974800000
C         0.49063503410000    0.15702738250000   -0.02559440390000
C        -0.91501436850000    0.40934115740000   -0.07766502150000
C        -1.60979053680000    1.67241813200000   -0.20997805990000
C        -1.14445772130000    2.86274530780000    0.14878684980000
H        -4.95776055510000   -0.87889072610000    0.27606722030000
H        -3.82215733880000    0.46705079270000    0.77809803780000
H        -3.10297634020000   -2.22685030830000   -0.48272344010000
H        -0.73012354220000   -2.80632126860000   -0.05101213590000
H         3.83989109670000   -1.65365635730000    0.05082125070000
H         3.70645194050000    0.70224173740000    0.03616169650000
H        -2.59512635920000    1.58876975610000   -0.65250937220000
H        -0.17077576520000    2.98803376420000    0.58587241210000
H        -1.72768585450000    3.75519137060000   -0.00441243920000
$end

$rem
BASIS = 6-31G*
GUI = 2
METHOD = B3LYP
PRINT_ORBITALS false
MOLDEN_FORMAT false
--------------------------------------------------------------

             Standard Nuclear Orientation (Angstroms)
    I     Atom           X                Y                Z
 ----------------------------------------------------------------
    1      C       3.9107170470     0.4637690947     0.3072001832
    2      C       2.8876899345     1.2055129870    -0.1095734503
    3      C       1.4958320992     0.8327583730    -0.0889820135
    4      N       0.5360060870     1.8179527785    -0.0480148057
    5      C      -0.6871691062     1.2570054451    -0.0015801970
    6      N      -1.8474924021     1.9541073191     0.0485209470
    7      C      -2.9040934927     1.2200796437     0.0656748664
    8      N      -2.8911365328    -0.1325922772     0.0401581630
    9      C      -1.7353011195    -0.9426139703    -0.0047370981
   10      O      -1.8806493048    -2.1468027175    -0.0119054868
   11      C      -0.5407002218    -0.1404894250    -0.0259378491
   12      C       0.8614338502    -0.4083859111    -0.0928359050
   13      C       1.5402701253    -1.6775222046    -0.2479438938
   14      C       1.0638729144    -2.8671614840     0.0983648662
   15      H       4.9217001099     0.8278104969     0.2455735442
   16      H       3.7744136103    -0.5115897683     0.7384516184
   17      H       3.0768812285     2.2074980517    -0.4797459243
   18      H       0.7144982198     2.8085417519    -0.0209598788
   19      H      -3.8677700443     1.7077808058     0.1022599707
   20      H      -3.7620991786    -0.6490874322     0.0544842430
   21      H       2.5229688832    -1.5992797594    -0.6972755832
   22      H       0.0922950405    -2.9870981721     0.5415907270
   23      H       1.6353543215    -3.7641442682    -0.0716820060
 ----------------------------------------------------------------

    9    -625.9433819145      5.49e-06  Convergence criterion met
 Total energy in the final basis set =     -625.9433819145

                    Orbital Energies (a.u.)
 --------------------------------------------------------------

 Alpha MOs
 -- Occupied --
-19.1116 -14.3941 -14.3932 -14.3385 -10.2940 -10.2782 -10.2577 -10.2269
-10.2034 -10.1933 -10.1899 -10.1865 -10.1766 -10.1594  -1.0491  -1.0152
 -0.9816  -0.9035  -0.8187  -0.8014  -0.7580  -0.7280  -0.6755  -0.6611
 -0.6222  -0.5974  -0.5710  -0.5484  -0.5204  -0.5150  -0.4915  -0.4690
 -0.4577  -0.4505  -0.4326  -0.4265  -0.4156  -0.4093  -0.3977  -0.3733
 -0.3665  -0.3445  -0.3111  -0.2960  -0.2877  -0.2741  -0.2567  -0.2345
 -0.1914

          Ground-State Mulliken Net Atomic Charges

     Atom                 Charge (a.u.)
  ----------------------------------------
      1 C                    -0.348454
      2 C                    -0.124737
      3 C                     0.284111
      4 N                    -0.719243
      5 C                     0.478243
      6 N                    -0.501098
      7 C                     0.240735
      8 N                    -0.618839
      9 C                     0.562631
     10 O                    -0.514006
     11 C                    -0.017108
     12 C                     0.032618
     13 C                    -0.129780
     14 C                    -0.353428
     15 H                     0.145499
     16 H                     0.163412
     17 H                     0.127140
     18 H                     0.335730
     19 H                     0.165931
     20 H                     0.345083
     21 H                     0.129322
     22 H                     0.185716
     23 H                     0.130523
  ----------------------------------------
  Sum of atomic charges =     0.000000

                    Cartesian Multipole Moments
 -----------------------------------------------------------------
    Charge (ESU x 10^10)
                 0.0000
    Dipole Moment (Debye)
         X      -0.3467      Y       3.3459      Z       0.0666
       Tot       3.3644
    Quadrupole Moments (Debye-Ang)
        XX     -61.6191     XY      -0.2144     YY     -81.8184
        XZ      -0.9906     YZ      -1.2499     ZZ     -82.3247

 Total job time:  37.57s(wall), 37.46s(cpu)
        *  Thank you very much for using Q-Chem.  Have a nice day.  *
