 Q-Chem 5.2, Q-Chem, Inc., Pleasanton, CA (2019)
 Q-Chem 5.2.1 for Intel X86 EM64T Linux

User input:
--------------------------------------------------------------
$molecule
0 1
C        -3.37030706960000    1.77071960370000    0.04934385740000
C        -2.77816649860000    0.58396059720000    0.07508914730000
C        -1.34239424860000    0.32422008180000    0.01050102300000
C        -0.37575099530000    1.33107596470000   -0.04291528330000
C         0.96425995810000    0.97594439910000   -0.10393178610000
C         2.03720086610000    2.03483256820000   -0.17045485740000
O         3.30581122060000    1.59559622960000    0.24547434910000
C         1.28962311050000   -0.37232530950000   -0.10952125400000
C         0.26368310130000   -1.31887996570000   -0.04719656940000
C         0.57794609630000   -2.74428129510000   -0.04673792280000
C        -0.34458751720000   -3.69587908470000    0.01410183000000
N        -1.01462370600000   -0.96400937850000    0.01348608060000
H        -4.44185122730000    1.86142012470000    0.10010189820000
H        -2.82437582140000    2.69616132950000   -0.02453315380000
H        -3.36921048590000   -0.31904517030000    0.14486836380000
H        -0.65838737050000    2.37184547250000   -0.03536448620000
H         1.71886726710000    2.91476482340000    0.40969229420000
H         2.16589737480000    2.34919259210000   -1.21211610450000
H         3.24248744400000    1.27837215540000    1.15351934370000
H         2.32258380560000   -0.68159597170000   -0.16863099010000
H         1.63073008660000   -2.98918398230000   -0.10115979550000
H        -1.38788524110000   -3.43704192650000    0.06691997470000
H        -0.08918660830000   -4.74161147500000    0.01238470450000
$end

$rem
BASIS = 6-31G*
GUI = 2
METHOD = B3LYP
PRINT_ORBITALS false
MOLDEN_FORMAT false
--------------------------------------------------------------

             Standard Nuclear Orientation (Angstroms)
    I     Atom           X                Y                Z
 ----------------------------------------------------------------
    1      C      -2.2420615018    -3.0621997298    -0.0427044421
    2      C      -2.2323661393    -1.7360836059    -0.0745201764
    3      C      -1.0576028053    -0.8708033648    -0.0089463374
    4      C       0.2532124126    -1.3493771913     0.0522239737
    5      C       1.3000271562    -0.4405885008     0.1134841252
    6      C       2.7291351089    -0.9190552755     0.1882616009
    7      O       3.6768462105     0.0316442944    -0.2280458496
    8      C       0.9989628595     0.9133244281     0.1115604782
    9      C      -0.3385314152     1.3116169888     0.0417386537
   10      C      -0.6834746037     2.7298811090     0.0332845290
   11      C      -1.9303355031     3.1782079501    -0.0348993243
   12      N      -1.3300523082     0.4302139919    -0.0190798228
   13      H      -3.1641826133    -3.6153604499    -0.0948170000
   14      H      -1.3449514944    -3.6526836054     0.0376917997
   15      H      -3.1601331215    -1.1855776145    -0.1507640642
   16      H       0.4573586858    -2.4083684744     0.0504170284
   17      H       2.8328830653    -1.8519622710    -0.3871588287
   18      H       2.9786086857    -1.1399197447     1.2320168358
   19      H       3.4842514895     0.2844603325    -1.1380887334
   20      H       1.7902337135     1.6458198825     0.1706447072
   21      H       0.1539381375     3.4132756540     0.0881023492
   22      H      -2.7531054721     2.4864817869    -0.0880130207
   23      H      -2.1610980163     4.2296453563    -0.0390039999
 ----------------------------------------------------------------

    9    -517.6093192153      2.40e-06  Convergence criterion met
 Total energy in the final basis set =     -517.6093192153

                    Orbital Energies (a.u.)
 --------------------------------------------------------------

 Alpha MOs
 -- Occupied --
-19.1562 -14.3188 -10.2451 -10.2268 -10.2239 -10.2094 -10.1937 -10.1906
-10.1884 -10.1856 -10.1845 -10.1772  -1.0352  -0.9492  -0.8185  -0.8130
 -0.7693  -0.7281  -0.7017  -0.6479  -0.6281  -0.5731  -0.5516  -0.5192
 -0.5138  -0.4860  -0.4650  -0.4564  -0.4521  -0.4356  -0.4214  -0.4071
 -0.4028  -0.3808  -0.3664  -0.3499  -0.3403  -0.3216  -0.2970  -0.2774
 -0.2551  -0.2525  -0.2242

          Ground-State Mulliken Net Atomic Charges

     Atom                 Charge (a.u.)
  ----------------------------------------
      1 C                    -0.347104
      2 C                    -0.092193
      3 C                     0.311172
      4 C                    -0.230043
      5 C                     0.131054
      6 C                    -0.086213
      7 O                    -0.605228
      8 C                    -0.243979
      9 C                     0.332823
     10 C                    -0.109661
     11 C                    -0.331062
     12 N                    -0.576120
     13 H                     0.149697
     14 H                     0.142322
     15 H                     0.143824
     16 H                     0.127214
     17 H                     0.136400
     18 H                     0.173605
     19 H                     0.393825
     20 H                     0.144164
     21 H                     0.125587
     22 H                     0.168803
     23 H                     0.141113
  ----------------------------------------
  Sum of atomic charges =     0.000000

                    Cartesian Multipole Moments
 -----------------------------------------------------------------
    Charge (ESU x 10^10)
                 0.0000
    Dipole Moment (Debye)
         X       0.5938      Y      -1.0135      Z      -0.8482
       Tot       1.4489
    Quadrupole Moments (Debye-Ang)
        XX     -73.6102     XY       0.0202     YY     -61.7267
        XZ      -2.9579     YZ      -0.8651     ZZ     -70.8518

 Total job time:  27.47s(wall), 27.38s(cpu)
        *  Thank you very much for using Q-Chem.  Have a nice day.  *
