 Q-Chem 5.2, Q-Chem, Inc., Pleasanton, CA (2019)
 Q-Chem 5.2.1 for Intel X86 EM64T Linux

User input:
--------------------------------------------------------------
$molecule
0 1
C         1.58678588760000    3.28673524820000    0.06655574830000
C         0.40086841970000    2.70002695710000   -0.03905756480000
C         0.12844933540000    1.26754813390000    0.01238684020000
C        -1.19456998920000    0.83527402040000   -0.01446507080000
C        -1.52250717500000   -0.51723729920000    0.04071077820000
C        -2.89866432220000   -1.00156050030000    0.01688907330000
C        -3.99354352110000   -0.27773204270000   -0.18004920480000
C        -0.48623883340000   -1.44727319660000    0.11913231700000
C         0.83899223600000   -1.03952456160000    0.14004113840000
C         1.94848073290000   -2.06061238650000    0.22728339640000
O         3.16393180930000   -1.63364796250000   -0.33946675140000
C         1.14115972230000    0.31107718120000    0.08900938970000
H         1.68652594580000    4.35763002360000    0.01827086140000
H         2.50077390850000    2.73620154100000    0.20839822340000
H        -0.47898891130000    3.31875823860000   -0.17041750500000
H        -1.98070584130000    1.57309819440000   -0.06882585680000
H        -2.99883976340000   -2.06953028350000    0.17026455600000
H        -3.96925089760000    0.78502323960000   -0.34947848900000
H        -4.97024023800000   -0.73051595360000   -0.18215172840000
H        -0.71868614730000   -2.50265041400000    0.16043684850000
H         1.61807293060000   -3.00442391670000   -0.23287892180000
H         2.17686558100000   -2.26242521640000    1.27967492260000
H         3.00539563560000   -1.38871420310000   -1.25808948060000
H         2.17749347200000    0.61041274960000    0.11202689580000
$end

$rem
BASIS = 6-31G*
GUI = 2
METHOD = B3LYP
PRINT_ORBITALS false
MOLDEN_FORMAT false
--------------------------------------------------------------

             Standard Nuclear Orientation (Angstroms)
    I     Atom           X                Y                Z
 ----------------------------------------------------------------
    1      C       1.6692472340    -3.2427407742    -0.0738047908
    2      C       0.4706026673    -2.6823869522     0.0312467605
    3      C       0.1669869544    -1.2560863092    -0.0171085678
    4      C      -1.1652173856    -0.8529306514     0.0085659282
    5      C      -1.5225817652     0.4922166037    -0.0438134957
    6      C      -2.9090451337     0.9462537592    -0.0211304670
    7      C      -3.9881451948     0.1981506991     0.1721508081
    8      C      -0.5067858783     1.4448965457    -0.1181668966
    9      C       0.8270832053     1.0662938543    -0.1378337566
   10      C       1.9141036427     2.1116278028    -0.2206575896
   11      O       3.1376727605     1.7099334659     0.3470975885
   12      C       1.1586491226    -0.2774976693    -0.0896374883
   13      H       1.7923181740    -4.3113151230    -0.0280059433
   14      H       2.5712012280    -2.6719867445    -0.2127277304
   15      H      -0.3957192437    -3.3205489020     0.1595761332
   16      H      -1.9351075913    -1.6079123528     0.0597605211
   17      H      -3.0323144331     2.0121587280    -0.1720274283
   18      H      -3.9408809623    -0.8642416515     0.3389854261
   19      H      -4.9745184201     0.6294505705     0.1737156391
   20      H      -0.7622040313     2.4950360631    -0.1572495022
   21      H       1.5623648879     3.0468236472     0.2412812163
   22      H       2.1397487885     2.3210364905    -1.2721556882
   23      H       2.9830231792     1.4592790993     1.2648393163
   24      H       2.2013215280    -0.5540290032    -0.1116353341
 ----------------------------------------------------------------

    9    -501.5675122260      2.04e-06  Convergence criterion met
 Total energy in the final basis set =     -501.5675122260

                    Orbital Energies (a.u.)
 --------------------------------------------------------------

 Alpha MOs
 -- Occupied --
-19.1479 -10.2355 -10.1965 -10.1960 -10.1930 -10.1914 -10.1901 -10.1876
-10.1861 -10.1836 -10.1812 -10.1799  -1.0263  -0.8697  -0.8051  -0.7896
 -0.7435  -0.7231  -0.6819  -0.6292  -0.6171  -0.5701  -0.5415  -0.5201
 -0.5006  -0.4773  -0.4615  -0.4557  -0.4439  -0.4258  -0.4241  -0.4050
 -0.3799  -0.3748  -0.3704  -0.3560  -0.3397  -0.3249  -0.3178  -0.2877
 -0.2698  -0.2308  -0.2203

          Ground-State Mulliken Net Atomic Charges

     Atom                 Charge (a.u.)
  ----------------------------------------
      1 C                    -0.354013
      2 C                    -0.111857
      3 C                     0.189373
      4 C                    -0.265304
      5 C                     0.187589
      6 C                    -0.113258
      7 C                    -0.352233
      8 C                    -0.257501
      9 C                     0.107848
     10 C                    -0.084661
     11 O                    -0.607899
     12 C                    -0.244506
     13 H                     0.144460
     14 H                     0.147691
     15 H                     0.126090
     16 H                     0.125207
     17 H                     0.126634
     18 H                     0.143643
     19 H                     0.144721
     20 H                     0.121081
     21 H                     0.129852
     22 H                     0.166352
     23 H                     0.391102
     24 H                     0.139588
  ----------------------------------------
  Sum of atomic charges =     0.000000

                    Cartesian Multipole Moments
 -----------------------------------------------------------------
    Charge (ESU x 10^10)
                 0.0000
    Dipole Moment (Debye)
         X      -1.1018      Y       0.0643      Z       0.7945
       Tot       1.3599
    Quadrupole Moments (Debye-Ang)
        XX     -72.2080     XY      -2.4601     YY     -64.6298
        XZ       1.9863     YZ      -0.0143     ZZ     -72.1638

 Total job time:  28.72s(wall), 28.62s(cpu)
        *  Thank you very much for using Q-Chem.  Have a nice day.  *
