 Q-Chem 5.4, Q-Chem, Inc., Pleasanton, CA (2021)
 Q-Chem 5.4.2 for Intel X86 EM64T Linux

User input:
--------------------------------------------------------------
$molecule
0 1
C           -4.60698104130000        0.14351893480000       -0.74005492080000
C           -3.82816078190000       -0.56681060920000        0.06721459530000
C           -2.38879102010000       -0.41859605900000        0.24025117480000
C           -1.69440411690000       -1.36678014330000        0.99479362670000
C           -0.33321185690000       -1.26090524630000        1.16886816420000
C            0.39179458080000       -0.21892956680000        0.58824484220000
C            1.83877731680000       -0.20880759710000        0.81416419170000
C            2.78163472220000       -0.00971732700000       -0.08962571580000
F            2.62119084410000        0.21626412480000       -1.38803562910000
F            4.08638554000000       -0.04062528660000        0.18581470580000
C           -0.29180948300000        0.76446864710000       -0.13754676660000
C            0.40044651870000        1.96260991880000       -0.71119056430000
C           -1.66394643110000        0.64206516460000       -0.29743060000000
H           -5.66490912120000       -0.04471328030000       -0.80465210980000
H           -4.23021802140000        0.92998145410000       -1.37121024830000
H           -4.27172324240000       -1.35645056350000        0.66186757720000
H           -2.23071837050000       -2.19032892100000        1.44360452250000
H            0.19363075730000       -2.00410736130000        1.74995133000000
H            2.18184895120000       -0.45125452180000        1.80998284480000
H            1.24827345880000        2.25987400270000       -0.09759949560000
H           -0.29129023000000        2.79899075700000       -0.78071979920000
H            0.76802772580000        1.74690701210000       -1.71383980170000
H           -2.18259141370000        1.41028429500000       -0.85061123980000
$end

$rem
BASIS = 6-31G*
GUI = 2
METHOD = B3LYP
PRINT_ORBITALS false
MOLDEN_FORMAT false
$end
--------------------------------------------------------------

             Standard Nuclear Orientation (Angstroms)
    I     Atom           X                Y                Z
 ----------------------------------------------------------------
    1      C       4.4704177706    -0.8186076752    -0.3585044807
    2      C       3.7462965827     0.2833892274    -0.2033772395
    3      C       2.3023955367     0.3573624027    -0.0206964779
    4      C       1.6768798743     1.6056440178    -0.0536161738
    5      C       0.3136625394     1.7087306859     0.1056554297
    6      C      -0.4813669548     0.5760171288     0.2883004249
    7      C      -1.9236478356     0.7906803091     0.4248530704
    8      C      -2.8867146647     0.1190630707    -0.1808579063
    9      F      -2.7546058722    -0.8831819154    -1.0415148719
   10      F      -4.1839519003     0.3888373413    -0.0272518460
   11      C       0.1314876222    -0.6808158316     0.3653731154
   12      C      -0.6405694607    -1.9318764773     0.6527808518
   13      C       1.5068146499    -0.7627647111     0.2070531693
   14      H       5.5373129638    -0.7721266005    -0.4941147392
   15      H       4.0384003303    -1.8045835443    -0.3650795592
   16      H       4.2447881359     1.2451207051    -0.2250525484
   17      H       2.2685049554     2.4965774873    -0.2069592674
   18      H      -0.1593432094     2.6796724134     0.0723704049
   19      H      -2.2402107569     1.6250688137     1.0345392092
   20      H      -1.4987652305    -1.7284013237     1.2897803323
   21      H      -0.0033857641    -2.6616804278     1.1469974857
   22      H      -1.0045846863    -2.3764401924    -0.2728568742
   23      H       1.9703692541    -1.7350390473     0.2774933176
 ----------------------------------------------------------------

    9    -624.8287600836      6.26e-06  Convergence criterion met
 Total energy in the final basis set =     -624.8287600836

                    Orbital Energies (a.u.)
 --------------------------------------------------------------

 Alpha MOs
 -- Occupied --
-24.7408 -24.7328 -10.3554 -10.2014 -10.2009 -10.1968 -10.1937 -10.1898
-10.1878 -10.1854 -10.1832 -10.1796 -10.1775  -1.2828  -1.2222  -0.8719
 -0.8169  -0.7806  -0.7700  -0.7229  -0.6895  -0.6458  -0.6172  -0.5937
 -0.5727  -0.5549  -0.5287  -0.5175  -0.4961  -0.4670  -0.4572  -0.4427
 -0.4399  -0.4351  -0.4283  -0.4128  -0.4101  -0.4078  -0.3836  -0.3724
 -0.3655  -0.3432  -0.3379  -0.3066  -0.2643  -0.2460  -0.2140

          Ground-State Mulliken Net Atomic Charges

     Atom                 Charge (a.u.)
  ----------------------------------------
      1 C                    -0.350597
      2 C                    -0.117459
      3 C                     0.192104
      4 C                    -0.202498
      5 C                    -0.175504
      6 C                     0.116275
      7 C                    -0.345213
      8 C                     0.567089
      9 F                    -0.234095
     10 F                    -0.249115
     11 C                     0.145319
     12 C                    -0.536754
     13 C                    -0.254338
     14 H                     0.144063
     15 H                     0.143349
     16 H                     0.126876
     17 H                     0.127108
     18 H                     0.127939
     19 H                     0.168720
     20 H                     0.157033
     21 H                     0.154847
     22 H                     0.173781
     23 H                     0.121069
  ----------------------------------------
  Sum of atomic charges =     0.000000

                    Cartesian Multipole Moments
 -----------------------------------------------------------------
    Charge (ESU x 10^10)
                 0.0000
    Dipole Moment (Debye)
         X       0.6789      Y       0.3402      Z       0.4590
       Tot       0.8873
    Quadrupole Moments (Debye-Ang)
        XX     -74.0375     XY      -0.8185     YY     -67.6440
        XZ      -2.0033     YZ      -0.1771     ZZ     -76.7875

 Total job time:  47.93s(wall), 46.62s(cpu)
        *  Thank you very much for using Q-Chem.  Have a nice day.  *
