 Q-Chem 5.2, Q-Chem, Inc., Pleasanton, CA (2019)
 Q-Chem 5.2.1 for Intel X86 EM64T Linux

User input:
--------------------------------------------------------------
$molecule
0 1
F         6.50922088300000    0.09902456910000   -0.13762567690000
C         5.19470959370000    0.17591121230000   -0.33224219380000
F         4.95648978780000    1.01692919550000   -1.33069459120000
C         4.31662563650000   -0.50409103910000    0.39108802890000
C         2.86760533440000   -0.51027535530000    0.28386651800000
C         2.14611043090000   -1.30438994440000    1.17895988800000
C         0.76883917500000   -1.35566703730000    1.13691086210000
C         0.07486217190000   -0.61039504720000    0.18747992410000
N        -1.32203598070000   -0.67141388060000    0.13157109840000
C        -2.21894107590000    0.37681826530000    0.02132321190000
C        -1.84884548770000    1.78139199180000    0.11466592300000
C        -2.57272872970000    2.71058229050000   -0.63131288510000
C        -2.26285606430000    4.05468613960000   -0.55950364350000
C        -1.23434375770000    4.48856480720000    0.26157436770000
C        -0.52769888470000    3.57307003680000    1.02379458020000
C        -0.83141450650000    2.22619514100000    0.95675221620000
N        -3.44990805370000   -0.02647411710000   -0.12358804990000
C        -2.07362343310000   -1.82465217740000    0.04726352120000
C        -3.41102024570000   -1.39320801580000   -0.11560417610000
C        -4.43714530700000   -2.32270009090000   -0.24390805140000
C        -4.09686808740000   -3.65837058510000   -0.21857211370000
C        -2.77103338740000   -4.07390996380000   -0.08090650520000
C        -1.73677638790000   -3.16830273540000    0.04968214780000
C         0.78280569100000    0.17978014170000   -0.71556803550000
C         2.15944458810000    0.23296195210000   -0.66434488350000
H         4.74570839220000   -1.13203068860000    1.15872722330000
H         2.67545612510000   -1.88347485530000    1.92119410460000
H         0.22207588340000   -1.95792231770000    1.84686941800000
H        -3.37390876070000    2.35545488380000   -1.26030666010000
H        -2.82435904890000    4.76774566300000   -1.14473708920000
H        -0.98966800900000    5.53900260420000    0.31510890160000
H         0.26213057470000    3.90993835170000    1.67900386410000
H        -0.29045234170000    1.52490820000000    1.57522868910000
H        -5.45711242520000   -1.99549676830000   -0.36406307760000
H        -4.86960852880000   -4.40656989480000   -0.31516395850000
H        -2.54911617720000   -5.13076665360000   -0.07879799190000
H        -0.71184574870000   -3.49601385490000    0.14098005010000
H         0.24489975030000    0.75151091420000   -1.45664085990000
H         2.68202605400000    0.85205549640000   -1.37415446110000
$end

$rem
BASIS = 6-31G*
GUI = 2
METHOD = B3LYP
PRINT_ORBITALS false
MOLDEN_FORMAT false
--------------------------------------------------------------

             Standard Nuclear Orientation (Angstroms)
    I     Atom           X                Y                Z
 ----------------------------------------------------------------
    1      F      -6.4791342253     1.1085174228    -0.1008613195
    2      C      -5.2033055058     0.7877778322    -0.3036278546
    3      F      -5.1340788529    -0.0967888684    -1.2903986165
    4      C      -4.2078091981     1.3043424135     0.4026222736
    5      C      -2.7836056140     1.0416704223     0.2849697758
    6      C      -1.9192739516     1.7016872449     1.1622802047
    7      C      -0.5566299005     1.4974842579     1.1095933624
    8      C      -0.0213436909     0.6236530152     0.1670748431
    9      N       1.3622479266     0.4252079238     0.1002367913
   10      C       2.0494681134    -0.7719068544     0.0000938905
   11      C       1.4278015499    -2.0826700398     0.1181680832
   12      C       1.9606036604    -3.1398828399    -0.6182482038
   13      C       1.4090560647    -4.4026307117    -0.5230859476
   14      C       0.3263973576    -4.6277241502     0.3120430433
   15      C      -0.1918253928    -3.5869199128     1.0647906929
   16      C       0.3542289128    -2.3202458616     0.9743949749
   17      N       3.3321751213    -0.6046420764    -0.1599340627
   18      C       2.3126226737     1.4187444450    -0.0075734895
   19      C       3.5459158308     0.7457937803    -0.1731801841
   20      C       4.7244402613     1.4681912640    -0.3234202776
   21      C       4.6364164655     2.8439283332    -0.3166754353
   22      C       3.4113055970     3.4987597453    -0.1760993757
   23      C       2.2292134355     2.8013670215    -0.0238926085
   24      C      -0.8717096789    -0.0351041166    -0.7183477682
   25      C      -2.2339922435     0.1672402026    -0.6564627142
   26      H      -4.5061790653     2.0114411205     1.1633304886
   27      H      -2.3254400439     2.3789055190     1.8990721326
   28      H       0.0987765010     1.9985572996     1.8060636967
   29      H       2.8072277479    -2.9475387293    -1.2584587032
   30      H       1.8236939178    -5.2152210083    -1.1010220447
   31      H      -0.1071336697    -5.6141555120     0.3838465984
   32      H      -1.0236687609    -3.7630423697     1.7308443944
   33      H      -0.0420607954    -1.5225428522     1.5856076718
   34      H       5.6653915962     0.9568284234    -0.4456937315
   35      H       5.5328125659     3.4353398537    -0.4305456498
   36      H       3.3879942687     4.5783369628    -0.1890365405
   37      H       1.2831911310     3.3137359821     0.0695554921
   38      H      -0.4557635479    -0.7066574197    -1.4541553420
   39      H      -2.8687339559    -0.3548381353    -1.3526918497
 ----------------------------------------------------------------

    9   -1117.8407775191      4.51e-06  Convergence criterion met
 Total energy in the final basis set =    -1117.8407775191

                    Orbital Energies (a.u.)
 --------------------------------------------------------------

 Alpha MOs
 -- Occupied --
-24.7532 -24.7423 -14.3948 -14.3089 -10.3661 -10.2517 -10.2433 -10.2187
-10.2179 -10.2122 -10.2057 -10.2051 -10.2033 -10.2016 -10.2014 -10.2012
-10.1921 -10.1907 -10.1898 -10.1889 -10.1881 -10.1876 -10.1821 -10.1796
-10.1781  -1.2942  -1.2331  -1.0307  -0.9142  -0.8723  -0.8660  -0.8428
 -0.8143  -0.7776  -0.7677  -0.7560  -0.7511  -0.7368  -0.7211  -0.6656
 -0.6452  -0.6360  -0.6307  -0.6157  -0.5940  -0.5905  -0.5823  -0.5760
 -0.5479  -0.5396  -0.5276  -0.5223  -0.5042  -0.4925  -0.4766  -0.4718
 -0.4630  -0.4551  -0.4491  -0.4477  -0.4448  -0.4415  -0.4357  -0.4354
 -0.4260  -0.4234  -0.4195  -0.4131  -0.3951  -0.3887  -0.3739  -0.3648
 -0.3611  -0.3559  -0.3498  -0.3468  -0.3398  -0.3214  -0.2963  -0.2741
 -0.2684  -0.2626  -0.2530  -0.2393  -0.2149  -0.2118

          Ground-State Mulliken Net Atomic Charges

     Atom                 Charge (a.u.)
  ----------------------------------------
      1 F                    -0.244974
      2 C                     0.547667
      3 F                    -0.232276
      4 C                    -0.301115
      5 C                     0.206107
      6 C                    -0.210107
      7 C                    -0.160522
      8 C                     0.252659
      9 N                    -0.660092
     10 C                     0.406676
     11 C                     0.087657
     12 C                    -0.147457
     13 C                    -0.138526
     14 C                    -0.119363
     15 C                    -0.140773
     16 C                    -0.157193
     17 N                    -0.552919
     18 C                     0.319649
     19 C                     0.240571
     20 C                    -0.181275
     21 C                    -0.140521
     22 C                    -0.149180
     23 C                    -0.166589
     24 C                    -0.132782
     25 C                    -0.207473
     26 H                     0.162493
     27 H                     0.137300
     28 H                     0.155770
     29 H                     0.156244
     30 H                     0.133516
     31 H                     0.130762
     32 H                     0.131678
     33 H                     0.146938
     34 H                     0.137583
     35 H                     0.123608
     36 H                     0.124853
     37 H                     0.135735
     38 H                     0.157321
     39 H                     0.148351
  ----------------------------------------
  Sum of atomic charges =     0.000000

                    Cartesian Multipole Moments
 -----------------------------------------------------------------
    Charge (ESU x 10^10)
                 0.0000
    Dipole Moment (Debye)
         X      -2.6073      Y       0.6530      Z       0.6818
       Tot       2.7730
    Quadrupole Moments (Debye-Ang)
        XX    -148.0920     XY       2.3992     YY    -127.2169
        XZ      -5.4754     YZ       4.9251     ZZ    -138.3638

 Total job time:  136.03s(wall), 135.67s(cpu)
        *  Thank you very much for using Q-Chem.  Have a nice day.  *
