 Q-Chem 5.2, Q-Chem, Inc., Pleasanton, CA (2019)
 Q-Chem 5.2.1 for Intel X86 EM64T Linux

User input:
--------------------------------------------------------------
$molecule
0 1
C         3.75000215460000   -0.93536281220000   -0.12502803570000
C         2.61485725620000   -1.58151547900000    0.13070036880000
C         1.26661039490000   -1.07680614480000    0.02196911870000
S        -0.00369503250000   -2.26167363410000   -0.00060510010000
C        -1.27013113650000   -1.07268175820000   -0.02259890040000
C        -2.62004954010000   -1.57295777400000   -0.13117632830000
C        -3.75286634920000   -0.92365374090000    0.12688257140000
C        -0.71270378820000    0.18790544970000   -0.00701241500000
N        -1.42238055390000    1.43376486900000   -0.16382340450000
O        -2.41086158160000    1.62400571900000    0.50076157390000
O        -0.96423456090000    2.19226507700000   -0.98739204970000
C         0.71327473860000    0.18558044290000    0.00679988390000
N         1.42705406600000    1.42907365540000    0.16399483460000
O         2.41578478230000    1.61647159770000   -0.50101577040000
O         0.97167361550000    2.18865384420000    0.98809559520000
H         4.69462797610000   -1.43556809780000    0.00100520480000
H         3.78194629620000    0.08283828560000   -0.47030663000000
H         2.65072186730000   -2.62310368390000    0.42687222580000
H        -2.65946231100000   -2.61389315470000   -0.42924347220000
H        -3.78110099270000    0.09404420860000    0.47404661160000
H        -4.69922425890000   -1.42062315360000    0.00096762830000
$end

$rem
BASIS = 6-31G*
GUI = 2
METHOD = B3LYP
PRINT_ORBITALS false
MOLDEN_FORMAT false
--------------------------------------------------------------

             Standard Nuclear Orientation (Angstroms)
    I     Atom           X                Y                Z
 ----------------------------------------------------------------
    1      C       3.7521917114     0.8966140815     0.0996283592
    2      C       2.6163385916     1.5444810153    -0.1485053799
    3      C       1.2680841370     1.0418512926    -0.0306203380
    4      S      -0.0002220098     2.2286680736     0.0003939779
    5      C      -1.2683021487     1.0416223001     0.0310681802
    6      C      -2.6166884256     1.5439792882     0.1486979005
    7      C      -3.7522152740     0.8963872444    -0.1016366107
    8      C      -0.7129259268    -0.2198199873     0.0118613142
    9      N      -1.4234373111    -1.4645734587     0.1735983195
   10      O      -2.4166718615    -1.6533656587    -0.4842786824
   11      O      -0.9609065406    -2.2236915726     0.9941411919
   12      C       0.7129287839    -0.2196835532    -0.0115751877
   13      N       1.4237236749    -1.4642861041    -0.1734444666
   14      O       2.4166318320    -1.6531325898     0.4848988476
   15      O       0.9616274576    -2.2232508895    -0.9943677407
   16      H       4.6967111110     1.3953570713    -0.0328336423
   17      H       3.7849045301    -0.1215996338     0.4447977566
   18      H       2.6518001964     2.5859828079    -0.4450294402
   19      H      -2.6524926475     2.5850042560     0.4469074404
   20      H      -3.7843525957    -0.1213015640    -0.4484879682
   21      H      -4.6969387748     1.3948204193     0.0306068783
 ----------------------------------------------------------------

   10   -1116.7688145859      4.51e-06  Convergence criterion met
 Total energy in the final basis set =    -1116.7688145859

                    Orbital Energies (a.u.)
 --------------------------------------------------------------

 Alpha MOs
 -- Occupied --
-88.9531 -19.1972 -19.1972 -19.1941 -19.1941 -14.5909 -14.5909 -10.2779
-10.2774 -10.2757 -10.2757 -10.2293 -10.2293 -10.2096 -10.2096  -8.0148
 -5.9788  -5.9752  -5.9716  -1.2641  -1.2575  -1.0858  -1.0819  -0.9504
 -0.8520  -0.8459  -0.7986  -0.7932  -0.7186  -0.6973  -0.6514  -0.6233
 -0.5995  -0.5754  -0.5683  -0.5469  -0.5423  -0.5327  -0.5268  -0.5135
 -0.5005  -0.4726  -0.4661  -0.4401  -0.4174  -0.4063  -0.3950  -0.3937
 -0.3581  -0.3326  -0.3307  -0.3229  -0.3189  -0.3172  -0.3089  -0.2994
 -0.2841  -0.2443

          Ground-State Mulliken Net Atomic Charges

     Atom                 Charge (a.u.)
  ----------------------------------------
      1 C                    -0.334046
      2 C                    -0.107383
      3 C                    -0.151992
      4 S                     0.310509
      5 C                    -0.152031
      6 C                    -0.107478
      7 C                    -0.333972
      8 C                     0.300634
      9 N                     0.371766
     10 O                    -0.382411
     11 O                    -0.377316
     12 C                     0.300556
     13 N                     0.371719
     14 O                    -0.382346
     15 O                    -0.377266
     16 H                     0.158780
     17 H                     0.215698
     18 H                     0.151016
     19 H                     0.151046
     20 H                     0.215739
     21 H                     0.158777
  ----------------------------------------
  Sum of atomic charges =     0.000000

                    Cartesian Multipole Moments
 -----------------------------------------------------------------
    Charge (ESU x 10^10)
                -0.0000
    Dipole Moment (Debye)
         X      -0.0009      Y       5.9977      Z      -0.0011
       Tot       5.9977
    Quadrupole Moments (Debye-Ang)
        XX     -80.9655     XY      -0.0005     YY     -95.6604
        XZ      -2.0067     YZ       0.0044     ZZ     -94.8536

 Total job time:  44.62s(wall), 44.48s(cpu)
        *  Thank you very much for using Q-Chem.  Have a nice day.  *
