 Q-Chem 5.2, Q-Chem, Inc., Pleasanton, CA (2019)
 Q-Chem 5.2.1 for Intel X86 EM64T Linux

User input:
--------------------------------------------------------------
$molecule
0 1
C         3.76652484920000    0.32559094200000   -0.00997984430000
C         2.76925845470000   -0.55139015490000    0.00332149710000
C         1.35261946060000   -0.23340260830000    0.00316340280000
C         0.39113081800000   -1.25226179360000    0.00188561190000
N        -0.90302465300000   -1.02453188660000    0.00059439520000
C        -1.30283509480000    0.24835098260000    0.00067297730000
C        -2.72819471730000    0.53959335050000   -0.00192983470000
C        -3.66269777340000   -0.40346320080000   -0.00507399160000
N        -0.47672023260000    1.29624365510000    0.00348343990000
C         0.81719517690000    1.05991558340000    0.00499461040000
H         4.79339384230000    0.00331088690000   -0.00936668210000
H         3.60421841600000    1.38969583570000   -0.02252716590000
H         2.99041487510000   -1.61221294490000    0.01422313990000
H         0.68738172570000   -2.29571565310000    0.00152327520000
H        -2.96959800460000    1.59267161950000   -0.00138794070000
H        -3.38806497200000   -1.44457809200000   -0.00560816010000
H        -4.71240114960000   -0.16512861210000   -0.00710717260000
H         1.44948768020000    1.93859977980000    0.00868333100000
$end

$rem
BASIS = 6-31G*
GUI = 2
METHOD = B3LYP
PRINT_ORBITALS false
MOLDEN_FORMAT false
--------------------------------------------------------------

             Standard Nuclear Orientation (Angstroms)
    I     Atom           X                Y                Z
 ----------------------------------------------------------------
    1      C       3.7503695492    -0.3158952837     0.0096733494
    2      C       2.7498600294     0.5573880485    -0.0033632949
    3      C       1.3344091006     0.2341531428    -0.0032726364
    4      C       0.3691515923     1.2494420286    -0.0016904902
    5      N      -0.9241510941     1.0169176939    -0.0004430805
    6      C      -1.3192419918    -0.2574379037    -0.0008762035
    7      C      -2.7435125544    -0.5539608238     0.0016668968
    8      C      -3.6815037350     0.3856254204     0.0050934801
    9      N      -0.4892497741    -1.3022612839    -0.0039970818
   10      C       0.8037809873    -1.0611396712    -0.0054620032
   11      H       4.7760372391     0.0101878947     0.0091350963
   12      H       3.5920075968    -1.3805978302     0.0219215218
   13      H       2.9670837554     1.6190261225    -0.0139676638
   14      H       0.6615338450     2.2939863693    -0.0010370107
   15      H      -2.9810119021    -1.6079262128     0.0008302505
   16      H      -3.4107307700     1.4277506520     0.0059184750
   17      H      -4.7303166956     0.1434021108     0.0070759233
   18      H       1.4393251423    -1.9374737247    -0.0094100452
 ----------------------------------------------------------------

    9    -419.1263208587      3.71e-06  Convergence criterion met
 Total energy in the final basis set =     -419.1263208587

                    Orbital Energies (a.u.)
 --------------------------------------------------------------

 Alpha MOs
 -- Occupied --
-14.3341 -14.3339 -10.2562 -10.2376 -10.2376 -10.2116 -10.2057 -10.1941
-10.1870 -10.1848  -0.9946  -0.8938  -0.8358  -0.7877  -0.7413  -0.6757
 -0.6555  -0.5943  -0.5766  -0.5303  -0.5136  -0.4745  -0.4564  -0.4364
 -0.4306  -0.4209  -0.4095  -0.3818  -0.3613  -0.3426  -0.3198  -0.3027
 -0.2830  -0.2445  -0.2303

          Ground-State Mulliken Net Atomic Charges

     Atom                 Charge (a.u.)
  ----------------------------------------
      1 C                    -0.347321
      2 C                    -0.117376
      3 C                     0.126173
      4 C                     0.004368
      5 N                    -0.452892
      6 C                     0.439512
      7 C                    -0.087921
      8 C                    -0.326217
      9 N                    -0.452888
     10 C                     0.015484
     11 H                     0.152729
     12 H                     0.150297
     13 H                     0.136258
     14 H                     0.147179
     15 H                     0.145198
     16 H                     0.172903
     17 H                     0.147373
     18 H                     0.147140
  ----------------------------------------
  Sum of atomic charges =     0.000000

                    Cartesian Multipole Moments
 -----------------------------------------------------------------
    Charge (ESU x 10^10)
                 0.0000
    Dipole Moment (Debye)
         X       1.6229      Y       0.4799      Z       0.0021
       Tot       1.6924
    Quadrupole Moments (Debye-Ang)
        XX     -48.8401     XY       0.4430     YY     -56.9142
        XZ      -0.0081     YZ      -0.0298     ZZ     -60.5693

 Total job time:  16.80s(wall), 16.73s(cpu)
        *  Thank you very much for using Q-Chem.  Have a nice day.  *
