 Q-Chem 5.2, Q-Chem, Inc., Pleasanton, CA (2019)
 Q-Chem 5.2.1 for Intel X86 EM64T Linux

User input:
--------------------------------------------------------------
$molecule
0 1
C        -6.38472082220000   -1.29765436570000    0.29900872420000
C        -5.15953331990000   -1.49302113040000    0.77374624630000
C        -3.92123497510000   -0.94847013240000    0.23925324140000
C        -3.85687753250000   -0.14638962810000   -0.89973995610000
C        -2.65479066580000    0.34720931860000   -1.36122213310000
C        -1.45257271250000    0.08141981780000   -0.70180504800000
C        -1.52048941310000   -0.71831496320000    0.44258958210000
C        -2.72066973640000   -1.22951518870000    0.89305784920000
S        -0.06843895570000   -1.03285107220000    1.41192492070000
C         1.15549244550000   -0.92696547440000    0.13370211190000
C         2.33664126940000   -1.61634521130000    0.31701263010000
C         3.36950130530000   -1.53841811890000   -0.61769386660000
C         4.64438115340000   -2.21919474880000   -0.45369266810000
C         5.03444454570000   -2.93535824450000    0.59481534270000
C         3.14205456460000   -0.77134325320000   -1.76036459710000
C         1.95382140740000   -0.09713348500000   -1.95184394860000
C         0.93700797850000   -0.13124327450000   -0.99524991530000
N        -0.24443852950000    0.57846073280000   -1.18010173210000
C        -0.21700057820000    1.87812791380000   -1.81730753590000
C        -0.72670185590000    2.96729281950000   -0.86293354000000
C        -0.01563243600000    2.94767245640000    0.49160397660000
C         1.48406399780000    3.22263966260000    0.39811278630000
C         2.16414454820000    3.25286498080000    1.76758393820000
C         2.27260564480000    1.87190398420000    2.40391061470000
H        -7.24335297330000   -1.74711175360000    0.76728215160000
H        -6.58581768600000   -0.68893839100000   -0.56570136990000
H        -5.03163217790000   -2.11597334110000    1.65076910200000
H        -4.75747736930000    0.09483943420000   -1.44187199890000
H        -2.64982866190000    0.95074593470000   -2.25489564220000
H        -2.72005005410000   -1.83472938040000    1.78787985160000
H         2.44990604750000   -2.20143273280000    1.21561607190000
H         5.32242913140000   -2.10398356250000   -1.29105297500000
H         4.41486427400000   -3.08474235450000    1.46204166470000
H         6.00405879220000   -3.40192799460000    0.62283655990000
H         3.90960260050000   -0.70629416690000   -2.51820154200000
H         1.80996318610000    0.46038444110000   -2.86499299080000
H        -0.80668658410000    1.88392445560000   -2.74108948210000
H         0.81398392190000    2.10456664980000   -2.08294601840000
H        -1.79731557310000    2.83096531890000   -0.69598787260000
H        -0.58119275300000    3.93613728170000   -1.34535937840000
H        -0.18134543690000    1.98033667450000    0.96618188560000
H        -0.47400287940000    3.70574686200000    1.13110580510000
H         1.63497694030000    4.18550014210000   -0.09778819200000
H         1.97084881430000    2.45403750880000   -0.20556676710000
H         1.61199455220000    3.92050806830000    2.43310831590000
H         3.16987037370000    3.66337207440000    1.64816915380000
H         1.29123699230000    1.45302457190000    2.60872553410000
H         2.81605382740000    1.93127518620000    3.34414745460000
H         2.80427833710000    1.18899837640000    1.74354461540000
$end

$rem
BASIS = 6-31G*
GUI = 2
METHOD = B3LYP
PRINT_ORBITALS false
MOLDEN_FORMAT false
--------------------------------------------------------------

             Standard Nuclear Orientation (Angstroms)
    I     Atom           X                Y                Z
 ----------------------------------------------------------------
    1      C      -6.4079661918     1.3235688248    -0.3327270463
    2      C      -5.1804511883     1.5239894213    -0.7992747975
    3      C      -3.9435245104     0.9844669843    -0.2565692733
    4      C      -3.8834783691     0.1825605655     0.8827818913
    5      C      -2.6824839353    -0.3061523228     1.3522397038
    6      C      -1.4769949264    -0.0353880280     0.7008673801
    7      C      -1.5405546046     0.7641585727    -0.4439089597
    8      C      -2.7397880383     1.2704794677    -0.9023393920
    9      S      -0.0833742380     1.0847179258    -1.4035242856
   10      C       1.1324319354     0.9837356549    -0.1171762326
   11      C       2.3119442887     1.6779602201    -0.2925688591
   12      C       3.3388605323     1.6041830326     0.6489982791
   13      C       4.6120075375     2.2901866305     0.4935389374
   14      C       5.0061168548     3.0080293408    -0.5523044259
   15      C       3.1069435886     0.8360871214     1.7900834951
   16      C       1.9202305544     0.1570027082     1.9735984093
   17      C       0.9096857309     0.1870304948     1.0102486996
   18      N      -0.2700513636    -0.5275195190     1.1871794458
   19      C      -0.2415412654    -1.8271172437     1.8244798359
   20      C      -0.7404054979    -2.9182790134     0.8666668175
   21      C      -0.0204081381    -2.8956337110    -0.4830989231
   22      C       1.4797448757    -3.1644673537    -0.3796273399
   23      C       2.1690579410    -3.1917929107    -1.7445358250
   24      C       2.2761040490    -1.8103458107    -2.3800464570
   25      H      -7.2652904282     1.7695470608    -0.8066887365
   26      H      -6.6123293712     0.7139617928     0.5305884179
   27      H      -5.0492576917     2.1475339752    -1.6753899178
   28      H      -4.7866771628    -0.0623989003     1.4188840062
   29      H      -2.6810088422    -0.9097389620     2.2458919865
   30      H      -2.7356808277     1.8757666145    -1.7971028348
   31      H       2.4288007567     2.2635823076    -1.1903638245
   32      H       5.2849241833     2.1776814183     1.3353944633
   33      H       4.3917253217     3.1549490529    -1.4236335608
   34      H       5.9739780660     3.4785667496    -0.5738341759
   35      H       3.8696823292     0.7741166744     2.5530169675
   36      H       1.7725717394    -0.4011764792     2.8857362652
   37      H      -0.8373438885    -1.8354056058     2.7443096065
   38      H       0.7885678594    -2.0493560618     2.0969728502
   39      H      -1.8104316418    -2.7863212274     0.6925950823
   40      H      -0.5941504297    -3.8865603992     1.3499967187
   41      H      -0.1869126276    -1.9289443615    -0.9587158506
   42      H      -0.4713977088    -3.6555241925    -1.1256856640
   43      H       1.6312892873    -4.1267438226     0.1172137696
   44      H       1.9593436581    -2.3939298732     0.2273279557
   45      H       1.6240949352    -3.8616345320    -2.4137645844
   46      H       3.1756375523    -3.5981896060    -1.6184421586
   47      H       1.2944159086    -1.3954699537    -2.5913754984
   48      H       2.8260467613    -1.8674125367    -3.3166427328
   49      H       2.8005622803    -1.1253251876    -1.7161116082
 ----------------------------------------------------------------

    9   -1306.3042861120      3.05e-06  Convergence criterion met
 Total energy in the final basis set =    -1306.3042861120

                    Orbital Energies (a.u.)
 --------------------------------------------------------------

 Alpha MOs
 -- Occupied --
-88.8890 -14.3670 -10.2365 -10.2355 -10.2242 -10.2199 -10.2191 -10.1932
-10.1930 -10.1919 -10.1916 -10.1915 -10.1906 -10.1893 -10.1891 -10.1887
-10.1883 -10.1812 -10.1769 -10.1763 -10.1698 -10.1688 -10.1682 -10.1557
 -7.9497  -5.9147  -5.9112  -5.9049  -0.9801  -0.8720  -0.8680  -0.8185
 -0.8033  -0.7989  -0.7763  -0.7639  -0.7587  -0.7357  -0.7232  -0.7078
 -0.6808  -0.6584  -0.6436  -0.6185  -0.6113  -0.5935  -0.5865  -0.5670
 -0.5566  -0.5497  -0.5366  -0.5107  -0.4951  -0.4831  -0.4783  -0.4656
 -0.4615  -0.4539  -0.4460  -0.4393  -0.4376  -0.4321  -0.4245  -0.4157
 -0.4111  -0.4083  -0.3942  -0.3927  -0.3859  -0.3826  -0.3803  -0.3730
 -0.3601  -0.3563  -0.3512  -0.3479  -0.3429  -0.3375  -0.3351  -0.3213
 -0.3175  -0.3089  -0.3048  -0.3021  -0.3002  -0.2627  -0.2604  -0.2256
 -0.2192  -0.1770

          Ground-State Mulliken Net Atomic Charges

     Atom                 Charge (a.u.)
  ----------------------------------------
      1 C                    -0.357050
      2 C                    -0.113356
      3 C                     0.199404
      4 C                    -0.202177
      5 C                    -0.161721
      6 C                     0.317748
      7 C                    -0.112841
      8 C                    -0.265129
      9 S                     0.162756
     10 C                    -0.103648
     11 C                    -0.252026
     12 C                     0.198849
     13 C                    -0.116925
     14 C                    -0.355274
     15 C                    -0.212533
     16 C                    -0.168900
     17 C                     0.316342
     18 N                    -0.582291
     19 C                    -0.167884
     20 C                    -0.276665
     21 C                    -0.268567
     22 C                    -0.258378
     23 C                    -0.249189
     24 C                    -0.457138
     25 H                     0.143369
     26 H                     0.139858
     27 H                     0.127383
     28 H                     0.128655
     29 H                     0.132750
     30 H                     0.141946
     31 H                     0.141920
     32 H                     0.125064
     33 H                     0.142499
     34 H                     0.142963
     35 H                     0.129250
     36 H                     0.137272
     37 H                     0.145729
     38 H                     0.165213
     39 H                     0.147772
     40 H                     0.133072
     41 H                     0.170276
     42 H                     0.130113
     43 H                     0.120289
     44 H                     0.137494
     45 H                     0.126908
     46 H                     0.126432
     47 H                     0.165184
     48 H                     0.135588
     49 H                     0.149593
  ----------------------------------------
  Sum of atomic charges =     0.000000

                    Cartesian Multipole Moments
 -----------------------------------------------------------------
    Charge (ESU x 10^10)
                 0.0000
    Dipole Moment (Debye)
         X      -0.1353      Y      -1.2892      Z       1.6853
       Tot       2.1262
    Quadrupole Moments (Debye-Ang)
        XX    -143.0960     XY       2.0933     YY    -151.0675
        XZ       1.6652     YZ      -7.4847     ZZ    -145.0234

 Total job time:  163.22s(wall), 162.80s(cpu)
        *  Thank you very much for using Q-Chem.  Have a nice day.  *
