 Q-Chem 5.2, Q-Chem, Inc., Pleasanton, CA (2019)
 Q-Chem 5.2.1 for Intel X86 EM64T Linux

User input:
--------------------------------------------------------------
$molecule
0 1
C        -3.57690482600000    1.29825091950000   -0.00049202660000
C        -2.88863055330000    0.16225728690000    0.00679173130000
C        -1.43931044800000    0.03545326070000    0.00263445000000
C        -0.56210328070000    1.11980650400000   -0.00201356990000
C         0.80366608900000    0.93505295480000   -0.00585180970000
F         1.56140430320000    2.05245180930000   -0.01240288050000
C         1.40170436770000   -0.33024068530000   -0.00596806400000
C         2.83213824970000   -0.59905120780000   -0.01065306270000
C         3.82644212960000    0.28215960900000    0.02297640220000
C         0.52058782460000   -1.41539479340000   -0.00289739810000
C        -0.84319246480000   -1.22985550150000    0.00228224390000
F        -1.62874752480000   -2.32879181570000    0.00624795170000
H        -4.65283953020000    1.29421873120000    0.00302114690000
H        -3.10881226420000    2.26746573100000   -0.01039293280000
H        -3.42168308290000   -0.77923158890000    0.01586111180000
H        -0.93869913610000    2.12955305090000   -0.00258127230000
H         3.07126903930000   -1.65517464970000   -0.04259991090000
H         3.67530698890000    1.34537267340000    0.05887123980000
H         4.85082311340000   -0.05008573660000    0.01607952230000
H         0.90744074520000   -2.42302307170000   -0.00338228610000
$end

$rem
BASIS = 6-31G*
GUI = 2
METHOD = B3LYP
PRINT_ORBITALS false
MOLDEN_FORMAT false
--------------------------------------------------------------

             Standard Nuclear Orientation (Angstroms)
    I     Atom           X                Y                Z
 ----------------------------------------------------------------
    1      C       3.5156906005    -1.4499557128     0.0008137787
    2      C       2.8811560388    -0.2830851771     0.0067386241
    3      C       1.4393283164    -0.0888185081     0.0024267925
    4      C       0.5124945127    -1.1310775091    -0.0009272950
    5      C      -0.8431702641    -0.8828214084    -0.0049891583
    6      F      -1.6522067251    -1.9636651072    -0.0102065574
    7      C      -1.3815360641     0.4089902660    -0.0066186400
    8      C      -2.7978740466     0.7442271438    -0.0116278417
    9      C      -3.8321991652    -0.0896028572     0.0230525362
   10      C      -0.4507598672     1.4518650177    -0.0048428543
   11      C       0.9028814143     1.2029184152     0.0005613450
   12      F       1.7388430901     2.2640190390     0.0032155032
   13      H       4.5906423815    -1.4961123236     0.0043243788
   14      H       3.0028965851    -2.3962917370    -0.0079299228
   15      H       3.4575459484     0.6325239634     0.0146840677
   16      H       0.8415792744    -2.1572917460    -0.0002876011
   17      H      -2.9874818046     1.8103166790    -0.0448371944
   18      H      -3.7308217635    -1.1586648895     0.0602181636
   19      H      -4.8399673622     0.2900561552     0.0157565009
   20      H      -0.7901893952     2.4764404931    -0.0065326280
 ----------------------------------------------------------------

    9    -585.5126711718      1.84e-06  Convergence criterion met
 Total energy in the final basis set =     -585.5126711718

                    Orbital Energies (a.u.)
 --------------------------------------------------------------

 Alpha MOs
 -- Occupied --
-24.7125 -24.7111 -10.2769 -10.2749 -10.2151 -10.2130 -10.2032 -10.2028
-10.1996 -10.1987 -10.1887 -10.1846  -1.2244  -1.2226  -0.8835  -0.8214
 -0.7783  -0.7579  -0.7301  -0.6567  -0.6330  -0.5886  -0.5816  -0.5399
 -0.5314  -0.5109  -0.4768  -0.4720  -0.4599  -0.4581  -0.4477  -0.4418
 -0.4245  -0.4144  -0.3907  -0.3725  -0.3711  -0.3632  -0.3417  -0.3319
 -0.2762  -0.2511  -0.2193

          Ground-State Mulliken Net Atomic Charges

     Atom                 Charge (a.u.)
  ----------------------------------------
      1 C                    -0.346086
      2 C                    -0.111824
      3 C                     0.115119
      4 C                    -0.277818
      5 C                     0.333199
      6 F                    -0.293338
      7 C                     0.125286
      8 C                    -0.108858
      9 C                    -0.355493
     10 C                    -0.290484
     11 C                     0.315415
     12 F                    -0.293586
     13 H                     0.151454
     14 H                     0.145864
     15 H                     0.148379
     16 H                     0.148730
     17 H                     0.133587
     18 H                     0.165012
     19 H                     0.143936
     20 H                     0.151503
  ----------------------------------------
  Sum of atomic charges =     0.000000

                    Cartesian Multipole Moments
 -----------------------------------------------------------------
    Charge (ESU x 10^10)
                 0.0000
    Dipole Moment (Debye)
         X      -0.0359      Y      -0.0671      Z       0.0049
       Tot       0.0763
    Quadrupole Moments (Debye-Ang)
        XX     -61.7010     XY      -5.3931     YY     -65.2125
        XZ      -0.0172     YZ      -0.0951     ZZ     -70.8127

 Total job time:  24.61s(wall), 24.07s(cpu)
        *  Thank you very much for using Q-Chem.  Have a nice day.  *
