 Q-Chem 5.2, Q-Chem, Inc., Pleasanton, CA (2019)
 Q-Chem 5.2.1 for Intel X86 EM64T Linux

User input:
--------------------------------------------------------------
$molecule
0 1
C         3.52284993680000   -0.19716401730000   -0.51097762450000
C         2.42636339300000   -0.56378968310000    0.13809900850000
C         1.15216009230000    0.15435182900000    0.09843954890000
C         1.14966285520000    1.54444182930000    0.04639739030000
C        -0.03215386230000    2.25943184060000    0.06801718790000
C        -1.23351724210000    1.58068363670000    0.12793079340000
C        -1.27976137340000    0.18975087970000    0.13709588590000
C        -2.59939135510000   -0.44337764890000    0.15645715320000
C        -2.96638722480000   -1.53095135060000   -0.51078559410000
C        -0.07426549920000   -0.53940157430000    0.14131988950000
N        -0.09666496120000   -1.91764945380000    0.13415473480000
H         4.44421301620000   -0.74757011760000   -0.42386292140000
H         3.53721232580000    0.65735979450000   -1.16602484430000
H         2.46559204340000   -1.44917671730000    0.76463771930000
H         2.09469649200000    2.06601339240000    0.02556082810000
H        -0.01662458780000    3.33866735030000    0.04829538150000
H        -2.16376318460000    2.13079131380000    0.14744603850000
H        -3.34079553560000    0.08669014730000    0.74448233210000
H        -2.29712561730000   -2.05638335600000   -1.17077024130000
H        -3.97475151620000   -1.90695616000000   -0.45539392760000
H        -0.94095390600000   -2.33642186470000    0.49379165560000
H         0.75437935610000   -2.37728109120000    0.41459745690000
$end

$rem
BASIS = 6-31G*
GUI = 2
METHOD = B3LYP
PRINT_ORBITALS false
MOLDEN_FORMAT false
--------------------------------------------------------------

             Standard Nuclear Orientation (Angstroms)
    I     Atom           X                Y                Z
 ----------------------------------------------------------------
    1      C      -3.4516280477    -0.7651581353     0.4196047473
    2      C      -2.3003730496    -0.9217734163    -0.2192075711
    3      C      -1.1593823386    -0.0110804770    -0.1208575680
    4      C      -1.3818235064     1.3576776053    -0.0109209025
    5      C      -0.3305339587     2.2531885646     0.0239974930
    6      C       0.9653228860     1.7792642513    -0.0369411484
    7      C       1.2353277204     0.4155734777    -0.1029814128
    8      C       2.6399017765     0.0037844838    -0.1188378398
    9      C       3.1669498817    -1.0396079530     0.5106603148
   10      C       0.1633585895    -0.4965433638    -0.1648400909
   11      N       0.4075335012    -1.8522811301    -0.2145795542
   12      H      -4.2707356745    -1.4517468306     0.2888208409
   13      H      -3.6137921635     0.0458233652     1.1091813483
   14      H      -2.1865625302    -1.7730576445    -0.8828054704
   15      H      -2.3987863442     1.7194766709     0.0102369567
   16      H      -0.5201466656     3.3139864683     0.0882954128
   17      H       1.7949104664     2.4717545808    -0.0124788365
   18      H       3.2952553397     0.6716679278    -0.6673531550
   19      H       2.5809145821    -1.6945703784     1.1328793075
   20      H       4.2234808175    -1.2461693071     0.4624816230
   21      H       1.3138041490    -2.1137128153    -0.5721545201
   22      H      -0.3537962043    -2.4294343518    -0.5331027567
 ----------------------------------------------------------------

    8    -442.3930396763      7.91e-06  Convergence criterion met
 Total energy in the final basis set =     -442.3930396763

                    Orbital Energies (a.u.)
 --------------------------------------------------------------

 Alpha MOs
 -- Occupied --
-14.3372 -10.2252 -10.1905 -10.1897 -10.1833 -10.1831 -10.1790 -10.1781
-10.1766 -10.1762 -10.1696  -0.9254  -0.8406  -0.8023  -0.7693  -0.7166
 -0.7152  -0.6266  -0.6137  -0.5706  -0.5500  -0.5234  -0.5041  -0.4745
 -0.4555  -0.4502  -0.4344  -0.4194  -0.4122  -0.3839  -0.3712  -0.3694
 -0.3434  -0.3311  -0.3068  -0.2982  -0.2713  -0.2188  -0.1925

          Ground-State Mulliken Net Atomic Charges

     Atom                 Charge (a.u.)
  ----------------------------------------
      1 C                    -0.337788
      2 C                    -0.138664
      3 C                     0.143694
      4 C                    -0.196251
      5 C                    -0.133592
      6 C                    -0.199718
      7 C                     0.138194
      8 C                    -0.148051
      9 C                    -0.363560
     10 C                     0.181953
     11 N                    -0.808125
     12 H                     0.138838
     13 H                     0.145364
     14 H                     0.118536
     15 H                     0.126068
     16 H                     0.119496
     17 H                     0.123043
     18 H                     0.135102
     19 H                     0.166629
     20 H                     0.140554
     21 H                     0.325405
     22 H                     0.322873
  ----------------------------------------
  Sum of atomic charges =     0.000000

                    Cartesian Multipole Moments
 -----------------------------------------------------------------
    Charge (ESU x 10^10)
                 0.0000
    Dipole Moment (Debye)
         X       0.2517      Y      -1.0152      Z      -1.0164
       Tot       1.4585
    Quadrupole Moments (Debye-Ang)
        XX     -59.3880     XY       0.2324     YY     -58.3621
        XZ      -1.5054     YZ       2.9845     ZZ     -67.9625

 Total job time:  23.12s(wall), 22.47s(cpu)
        *  Thank you very much for using Q-Chem.  Have a nice day.  *
