 Q-Chem 5.2, Q-Chem, Inc., Pleasanton, CA (2019)
 Q-Chem 5.2.1 for Intel X86 EM64T Linux

User input:
--------------------------------------------------------------
$molecule
0 1
C         2.91008802800000   -2.80019332110000    0.43127483830000
C         2.77833691560000   -1.67922571300000   -0.26405965670000
C         1.75014115340000   -0.66576719240000   -0.02352223060000
C         0.48037257170000   -1.06821014180000    0.37299080910000
C        -0.51683062150000   -0.13094657500000    0.55528887160000
O        -1.81365597500000   -0.55989876620000    0.96541459480000
C        -2.64387265410000   -0.81762763780000   -0.01480249680000
F        -2.23042663340000   -1.79500130460000   -0.84846772310000
F        -3.81789758880000   -1.20751427450000    0.47402253510000
F        -2.89407666400000    0.23578840520000   -0.82079136990000
C        -0.27760198350000    1.21378201760000    0.35421687750000
C         0.99313070410000    1.65166154460000   -0.00155972260000
C         1.18700524680000    3.09529430530000   -0.15563098200000
C         2.24569649920000    3.79454211090000    0.23442233710000
C         2.01999169920000    0.70717947240000   -0.21426690780000
N         3.28027042610000    1.12540798690000   -0.55542647870000
H         3.66954021240000   -3.52545991470000    0.19545803000000
H         2.27655955800000   -3.02676114190000    1.27162022490000
H         3.46108816930000   -1.49038780130000   -1.08504340880000
H         0.26304736610000   -2.11556210360000    0.50594338720000
H        -1.07363918300000    1.92849366150000    0.49444392990000
H         0.34051318210000    3.61549676780000   -0.58786966570000
H         3.08260901120000    3.34324367790000    0.74001718800000
H         2.28606424680000    4.86296203170000    0.10445568030000
H         3.34501319520000    2.04319489340000   -0.96745806540000
H         3.90419073570000    0.43285215540000   -0.93450876590000
$end

$rem
BASIS = 6-31G*
GUI = 2
METHOD = B3LYP
PRINT_ORBITALS false
MOLDEN_FORMAT false
--------------------------------------------------------------

             Standard Nuclear Orientation (Angstroms)
    I     Atom           X                Y                Z
 ----------------------------------------------------------------
    1      C      -1.5393743533    -3.6683484661    -0.3833064506
    2      C      -1.8400415673    -2.5641754072     0.2858855073
    3      C      -1.2514825069    -1.2487718090     0.0300446231
    4      C       0.0839667070    -1.1643505939    -0.3453799697
    5      C       0.6706623084     0.0699349097    -0.5414344337
    6      O       2.0412366153     0.1393784888    -0.9295874281
    7      C       2.8912212909     0.2234223236     0.0638772856
    8      F       2.8510526256    -0.8212743808     0.9172177103
    9      F       4.1345913806     0.2825865512    -0.4049792627
   10      F       2.7236206983     1.3104022974     0.8463669327
   11      C      -0.0487031149     1.2364587988    -0.3750292664
   12      C      -1.3973552530     1.1838542584    -0.0411921722
   13      C      -2.1100245837     2.4581042141     0.0762399981
   14      C      -3.3446098654     2.7120862226    -0.3399433447
   15      C      -2.0095065885    -0.0674505225     0.1851732894
   16      N      -3.3409750818    -0.1347712301     0.5049653879
   17      H      -1.9836433327    -4.6171544440    -0.1367681991
   18      H      -0.8526311134    -3.6625474793    -1.2122948337
   19      H      -2.5583911205    -2.6235106033     1.0959945163
   20      H       0.6726783932    -2.0610678704    -0.4510655478
   21      H       0.4318316719     2.1907215035    -0.5254307036
   22      H      -1.5209794977     3.2610174141     0.5032598773
   23      H      -3.9487737895     1.9753571353    -0.8418748006
   24      H      -3.7764144594     3.6933207384    -0.2361857828
   25      H      -3.7450018421     0.7028548395     0.8941175495
   26      H      -3.6736394398    -1.0006343131     0.8951308136
 ----------------------------------------------------------------

    9    -854.6468236771      3.05e-06  Convergence criterion met
 Total energy in the final basis set =     -854.6468236771

                    Orbital Energies (a.u.)
 --------------------------------------------------------------

 Alpha MOs
 -- Occupied --
-24.7200 -24.7140 -24.7133 -19.2070 -14.3511 -10.4678 -10.2489 -10.2420
-10.2028 -10.2022 -10.2019 -10.2014 -10.1986 -10.1977 -10.1888 -10.1878
 -1.3128  -1.2144  -1.2060  -1.1054  -0.9413  -0.8613  -0.8176  -0.7876
 -0.7439  -0.7344  -0.6832  -0.6484  -0.6354  -0.6155  -0.5885  -0.5877
 -0.5639  -0.5560  -0.5395  -0.5242  -0.4819  -0.4712  -0.4688  -0.4632
 -0.4503  -0.4489  -0.4362  -0.4356  -0.4286  -0.4117  -0.4080  -0.3938
 -0.3924  -0.3890  -0.3885  -0.3686  -0.3574  -0.3298  -0.3202  -0.3134
 -0.2834  -0.2355  -0.2057

          Ground-State Mulliken Net Atomic Charges

     Atom                 Charge (a.u.)
  ----------------------------------------
      1 C                    -0.333967
      2 C                    -0.139229
      3 C                     0.134016
      4 C                    -0.213606
      5 C                     0.294665
      6 O                    -0.516345
      7 C                     0.947801
      8 F                    -0.277292
      9 F                    -0.253506
     10 F                    -0.278473
     11 C                    -0.216078
     12 C                     0.124908
     13 C                    -0.145969
     14 C                    -0.361444
     15 C                     0.212115
     16 N                    -0.815173
     17 H                     0.145740
     18 H                     0.150993
     19 H                     0.124626
     20 H                     0.148924
     21 H                     0.146909
     22 H                     0.144615
     23 H                     0.168813
     24 H                     0.147892
     25 H                     0.330509
     26 H                     0.328559
  ----------------------------------------
  Sum of atomic charges =     0.000000

                    Cartesian Multipole Moments
 -----------------------------------------------------------------
    Charge (ESU x 10^10)
                 0.0000
    Dipole Moment (Debye)
         X      -4.1203      Y      -0.1984      Z       1.0292
       Tot       4.2515
    Quadrupole Moments (Debye-Ang)
        XX     -87.5326     XY      -0.3926     YY     -80.6559
        XZ      -6.1659     YZ       0.3229     ZZ     -91.7104

 Total job time:  45.16s(wall), 45.03s(cpu)
        *  Thank you very much for using Q-Chem.  Have a nice day.  *
