 Q-Chem 5.2, Q-Chem, Inc., Pleasanton, CA (2019)
 Q-Chem 5.2.1 for Intel X86 EM64T Linux

User input:
--------------------------------------------------------------
$molecule
0 1
C         0.01232953700000   -2.55474753650000   -0.12301171170000
C        -0.62340551570000   -1.69621269670000    0.66008310530000
C        -1.07213816990000   -0.36747635770000    0.24240095790000
C        -2.37238408200000    0.03153122940000    0.56633533300000
N        -2.93074085530000    1.15633267000000    0.17041915550000
C        -2.21708016150000    1.96917304920000   -0.59122916650000
C        -0.91029157520000    1.70268265240000   -0.95847531630000
C        -0.30493578120000    0.52549771560000   -0.51970275610000
C         1.10864490540000    0.31524532730000   -0.84505283230000
C         2.03311888300000   -0.08514084380000    0.00966839320000
F         1.85243325070000   -0.39868013540000    1.28458691560000
F         3.32016324880000   -0.21622485900000   -0.29805939870000
H         0.27835083430000   -3.53945553430000    0.21979609590000
H         0.28053698020000   -2.31247805880000   -1.13858441310000
H        -0.91417999900000   -1.98583783010000    1.66128025660000
H        -2.99769706010000   -0.61239564370000    1.17156963270000
H        -2.71473865440000    2.87560634490000   -0.90797669320000
H        -0.35299266760000    2.40768975520000   -1.55622237080000
H         1.44052578810000    0.58817237410000   -1.83551348090000
$end

$rem
BASIS = 6-31G*
GUI = 2
METHOD = B3LYP
PRINT_ORBITALS false
MOLDEN_FORMAT false
--------------------------------------------------------------

             Standard Nuclear Orientation (Angstroms)
    I     Atom           X                Y                Z
 ----------------------------------------------------------------
    1      C       0.9309532678    -2.1540086078    -0.9890554711
    2      C       0.0754914560    -1.9010435393    -0.0099373050
    3      C      -0.8183643583    -0.7432036539     0.0323499631
    4      C      -2.1609572422    -0.9468757734     0.3651291417
    5      N      -3.0870638302    -0.0111059062     0.3463800078
    6      C      -2.7286780943     1.2097816796    -0.0157282652
    7      C      -1.4271508950     1.5466601757    -0.3414936776
    8      C      -0.4371218070     0.5655206842    -0.2973453442
    9      C       0.9472952906     0.9719459336    -0.5551765155
   10      C       1.9898776958     0.6239416448     0.1779159329
   11      F       1.9839515913    -0.1691207752     1.2397013647
   12      F       3.2292356047     1.0506875045    -0.0462325830
   13      H       1.5323997047    -3.0462871060    -0.9950245353
   14      H       1.0548980066    -1.4872775075    -1.8269844573
   15      H      -0.0540921359    -2.6113713406     0.7959601831
   16      H      -2.5010686684    -1.9347552169     0.6486518371
   17      H      -3.5196676289     1.9471153840    -0.0327240130
   18      H      -1.1714290926     2.5623120708    -0.6022161667
   19      H       1.1216499813     1.6775932349    -1.3534926919
 ----------------------------------------------------------------

    9    -601.5410000439      4.95e-06  Convergence criterion met
 Total energy in the final basis set =     -601.5410000439

                    Orbital Energies (a.u.)
 --------------------------------------------------------------

 Alpha MOs
 -- Occupied --
-24.7449 -24.7411 -14.3258 -10.3638 -10.2240 -10.2204 -10.2204 -10.2083
-10.2073 -10.1995 -10.1979 -10.1866  -1.2896  -1.2293  -0.9503  -0.8504
 -0.8023  -0.7728  -0.7434  -0.6627  -0.6411  -0.6221  -0.5803  -0.5748
 -0.5381  -0.5248  -0.5083  -0.4849  -0.4779  -0.4486  -0.4453  -0.4425
 -0.4311  -0.4249  -0.4037  -0.4012  -0.3874  -0.3603  -0.3141  -0.2979
 -0.2564  -0.2530  -0.2328

          Ground-State Mulliken Net Atomic Charges

     Atom                 Charge (a.u.)
  ----------------------------------------
      1 C                    -0.328778
      2 C                    -0.142362
      3 C                     0.081002
      4 C                    -0.006313
      5 N                    -0.402745
      6 C                     0.041404
      7 C                    -0.188557
      8 C                     0.142935
      9 C                    -0.348497
     10 C                     0.589624
     11 F                    -0.228615
     12 F                    -0.243203
     13 H                     0.148514
     14 H                     0.151125
     15 H                     0.143954
     16 H                     0.141861
     17 H                     0.141437
     18 H                     0.135848
     19 H                     0.171367
  ----------------------------------------
  Sum of atomic charges =     0.000000

                    Cartesian Multipole Moments
 -----------------------------------------------------------------
    Charge (ESU x 10^10)
                 0.0000
    Dipole Moment (Debye)
         X       1.3548      Y       0.5340      Z      -0.9811
       Tot       1.7559
    Quadrupole Moments (Debye-Ang)
        XX     -76.3931     XY      -2.8122     YY     -59.7161
        XZ      -0.4759     YZ      -2.3583     ZZ     -66.6759

 Total job time:  24.58s(wall), 24.49s(cpu)
        *  Thank you very much for using Q-Chem.  Have a nice day.  *
