 Q-Chem 5.4, Q-Chem, Inc., Pleasanton, CA (2021)
 Q-Chem 5.4.2 for Intel X86 EM64T Linux

User input:
--------------------------------------------------------------
$molecule
0 1
C           -2.53091978870000       -1.66872928000000       -1.96904296420000
C           -2.71295292570000       -0.86047114970000       -0.93324023620000
C           -1.66344617880000       -0.05765311710000       -0.30154082100000
C           -2.01865487730000        1.19554649740000        0.19278189310000
C           -1.06300316410000        2.04121525250000        0.72445162630000
Cl          -1.53421813810000        3.58629815500000        1.34000502180000
C            0.26708181430000        1.66798674460000        0.76113014060000
C            0.64502817030000        0.41616240690000        0.28443993400000
C            2.05553241070000        0.03730840010000        0.34716183010000
C            2.71703262810000       -0.62100659730000       -0.59047358810000
F            2.28491072810000       -0.99520258570000       -1.78000200300000
F            4.00282971410000       -0.95289210280000       -0.47028325190000
C           -0.32342412620000       -0.47000644350000       -0.21225665720000
O            0.08562497870000       -1.72590312650000       -0.58202776480000
C           -0.39985051590000       -2.79661879660000        0.21526158940000
C            0.21443084450000       -2.79770512120000        1.61119110390000
H           -3.35408196530000       -2.19743299330000       -2.41882793170000
H           -1.55839007460000       -1.82443087740000       -2.40350761040000
H           -3.70954018040000       -0.69717588610000       -0.54115080210000
H           -3.04867181320000        1.51339674030000        0.14130757370000
H            1.01183843430000        2.34071212140000        1.15580757430000
H            2.61482260430000        0.33107861680000        1.22250424880000
H           -0.10914802260000       -3.69642637510000       -0.33136308580000
H           -1.49341301380000       -2.76083304770000        0.28694766070000
H            1.29896533290000       -2.83881068980000        1.54678702050000
H           -0.13937036690000       -3.66304193650000        2.16446332560000
H           -0.06904580170000       -1.89568905660000        2.15046357600000
$end

$rem
BASIS = 6-31G*
GUI = 2
METHOD = B3LYP
PRINT_ORBITALS false
MOLDEN_FORMAT false
$end
--------------------------------------------------------------

             Standard Nuclear Orientation (Angstroms)
    I     Atom           X                Y                Z
 ----------------------------------------------------------------
    1      C       0.0184214475    -3.3027467511    -1.3122400257
    2      C      -0.9213037653    -2.7255593844    -0.5753032390
    3      C      -0.9773999189    -1.2972123982    -0.2563934318
    4      C      -2.2350906979    -0.7044814282    -0.1673915184
    5      C      -2.3607229877     0.6556002966     0.0458988356
    6      Cl     -3.9340421253     1.3622308994     0.1623925803
    7      C      -1.2413731702     1.4582174184     0.1582937819
    8      C       0.0259916170     0.8876496827     0.0849444205
    9      C       1.1953025963     1.7542850168     0.2214788054
   10      C       2.3107989559     1.6567419976    -0.4829887824
   11      F       2.5717555705     0.8364324310    -1.4833505591
   12      F       3.3528798580     2.4688365917    -0.3028843249
   13      C       0.1654095351    -0.4989114569    -0.0821287250
   14      O       1.4320449983    -1.0244090582    -0.0535771060
   15      C       1.7303364728    -1.8653778318     1.0516751432
   16      C       1.8161503689    -1.0859604975     2.3597678668
   17      H      -0.0218476604    -4.3520558720    -1.5504812272
   18      H       0.8529431436    -2.7474254643    -1.7046790251
   19      H      -1.7674541054    -3.3041298120    -0.2247729466
   20      H      -3.1179725715    -1.3137628319    -0.2853281074
   21      H      -1.3449735006     2.5220451565     0.3015754887
   22      H       1.1445713671     2.5539826246     0.9448327223
   23      H       2.6986959485    -2.3060965790     0.8046790597
   24      H       0.9865560397    -2.6661247830     1.1405201599
   25      H       2.5564327811    -0.2937272860     2.2797609988
   26      H       2.1021300090    -1.7562466075     3.1653890113
   27      H       0.8524331161    -0.6400005580     2.5988820192
 ----------------------------------------------------------------

    9   -1198.9366869107      5.41e-06  Convergence criterion met
 Total energy in the final basis set =    -1198.9366869107

                    Orbital Energies (a.u.)
 --------------------------------------------------------------

 Alpha MOs
 -- Occupied --
******** -24.7362 -24.7321 -19.1683 -10.3565 -10.2518 -10.2494 -10.2378
-10.2138 -10.2093 -10.2031 -10.2023 -10.2015 -10.1986 -10.1854 -10.1785
 -9.4659  -7.2298  -7.2203  -7.2199  -1.2819  -1.2206  -1.0625  -0.9004
 -0.8515  -0.8216  -0.7806  -0.7670  -0.7415  -0.7190  -0.6513  -0.6472
 -0.6212  -0.6036  -0.5717  -0.5575  -0.5390  -0.5158  -0.5152  -0.4911
 -0.4896  -0.4752  -0.4646  -0.4436  -0.4387  -0.4362  -0.4338  -0.4242
 -0.4112  -0.4046  -0.3964  -0.3934  -0.3831  -0.3764  -0.3618  -0.3471
 -0.3323  -0.3144  -0.3062  -0.2829  -0.2680  -0.2323  -0.2248

          Ground-State Mulliken Net Atomic Charges

     Atom                 Charge (a.u.)
  ----------------------------------------
      1 C                    -0.325817
      2 C                    -0.152573
      3 C                     0.160962
      4 C                    -0.208292
      5 C                    -0.061358
      6 Cl                   -0.017047
      7 C                    -0.201612
      8 C                     0.145833
      9 C                    -0.323701
     10 C                     0.579984
     11 F                    -0.222848
     12 F                    -0.250897
     13 C                     0.230263
     14 O                    -0.538212
     15 C                    -0.040143
     16 C                    -0.460596
     17 H                     0.144490
     18 H                     0.171485
     19 H                     0.136910
     20 H                     0.150943
     21 H                     0.152683
     22 H                     0.168283
     23 H                     0.149172
     24 H                     0.146657
     25 H                     0.158375
     26 H                     0.148339
     27 H                     0.158716
  ----------------------------------------
  Sum of atomic charges =     0.000000

                    Cartesian Multipole Moments
 -----------------------------------------------------------------
    Charge (ESU x 10^10)
                 0.0000
    Dipole Moment (Debye)
         X       0.6217      Y      -1.5424      Z       1.3477
       Tot       2.1405
    Quadrupole Moments (Debye-Ang)
        XX    -103.8015     XY       0.8806     YY     -89.7737
        XZ       2.5964     YZ       0.5477     ZZ     -98.0596

 Total job time:  76.42s(wall), 73.73s(cpu)
        *  Thank you very much for using Q-Chem.  Have a nice day.  *
