 Q-Chem 5.4, Q-Chem, Inc., Pleasanton, CA (2021)
 Q-Chem 5.4.2 for Intel X86 EM64T Linux

User input:
--------------------------------------------------------------
$molecule
0 1
C           -3.14976384380000        2.32386652410000        1.06709965910000
C           -3.03978623990000        1.25844208310000        0.28485642340000
C           -1.86830836050000        0.39133112150000        0.17392142630000
C           -2.07547841500000       -0.94113131310000       -0.18327489140000
C           -1.01251211040000       -1.81815184090000       -0.28190393460000
Cl          -1.30124759170000       -3.46320435390000       -0.72467423640000
C            0.27976269740000       -1.40284390240000       -0.01761495670000
C            0.51775602930000       -0.07471907200000        0.32671630670000
C            1.84934490460000        0.40286379980000        0.68048117100000
C            3.01121514320000       -0.13023959600000        0.33798364930000
F            3.22042983990000       -1.18692369420000       -0.43696780400000
F            4.18468249830000        0.36353026240000        0.72477849710000
C           -0.55552085770000        0.83178181900000        0.40001208700000
O           -0.30667276600000        2.15071966420000        0.70432351790000
C            0.26302927610000        2.92333097030000       -0.34477600120000
C           -0.71534048730000        3.18268172960000       -1.48426525530000
H           -4.06131376830000        2.89702373850000        1.10099118330000
H           -2.34422592090000        2.65235209980000        1.69895520980000
H           -3.88679673840000        0.94081805220000       -0.31106664660000
H           -3.07853082430000       -1.28991241610000       -0.37488276890000
H            1.08977388110000       -2.11110685700000       -0.06532683920000
H            1.89164931980000        1.28639298510000        1.30147081810000
H            1.16447760960000        2.43296679620000       -0.73629614990000
H            0.54908081330000        3.86337657700000        0.13319764270000
H           -0.99945296850000        2.24650447300000       -1.96045948480000
H           -0.24750011520000        3.82522036870000       -2.22496622850000
H           -1.61292508530000        3.66607777330000       -1.10770311030000
$end

$rem
BASIS = 6-31G*
GUI = 2
METHOD = B3LYP
PRINT_ORBITALS false
MOLDEN_FORMAT false
$end
--------------------------------------------------------------

             Standard Nuclear Orientation (Angstroms)
    I     Atom           X                Y                Z
 ----------------------------------------------------------------
    1      C       3.6950728674    -0.9525090184     1.0136705285
    2      C       3.1846999665     0.0648336164     0.3327430301
    3      C       1.7684716115     0.4158174048     0.2452442186
    4      C       1.4411645392     1.7544778724     0.0288579589
    5      C       0.1207839401     2.1553071563    -0.0398517029
    6      Cl     -0.2529575072     3.8209979271    -0.3070652426
    7      C      -0.9084259038     1.2449934286     0.1162237297
    8      C      -0.6110506138    -0.1002624909     0.3186462043
    9      C      -1.6529569221    -1.0925444323     0.5556519107
   10      C      -2.9273032682    -1.0183689448     0.2063875100
   11      F      -3.5256433384    -0.0483305931    -0.4732569443
   12      F      -3.8177054539    -1.9676861880     0.4828387361
   13      C       0.7306089900    -0.5213196449     0.3598747569
   14      O       1.0148004197    -1.8580343252     0.5228378022
   15      C       0.8034548446    -2.6722980827    -0.6236376790
   16      C       1.8166203743    -2.4062134482    -1.7307061265
   17      H       4.7578431384    -1.1269762000     1.0393930149
   18      H       3.0760888446    -1.6343796191     1.5686000906
   19      H       3.8457377518     0.7489568645    -0.1853694506
   20      H       2.2295514316     2.4837680906    -0.0762983913
   21      H      -1.9305037254     1.5840166936     0.0949844575
   22      H      -1.3522892426    -1.9850048280     1.0858924366
   23      H      -0.2140410251    -2.5308458347    -1.0122860608
   24      H       0.9033828693    -3.6955480610    -0.2535783585
   25      H       1.7164043234    -1.3874495541    -2.0994683442
   26      H       1.6450132461    -3.0953935944    -2.5528680131
   27      H       2.8279832291    -2.5411635838    -1.3564568360
 ----------------------------------------------------------------

    9   -1198.9415343464      5.10e-06  Convergence criterion met
 Total energy in the final basis set =    -1198.9415343464

                    Orbital Energies (a.u.)
 --------------------------------------------------------------

 Alpha MOs
 -- Occupied --
******** -24.7488 -24.7399 -19.1734 -10.3632 -10.2526 -10.2496 -10.2437
-10.2175 -10.2090 -10.2077 -10.2023 -10.2019 -10.1951 -10.1818 -10.1788
 -9.4655  -7.2293  -7.2199  -7.2195  -1.2909  -1.2301  -1.0654  -0.9006
 -0.8522  -0.8239  -0.7808  -0.7697  -0.7403  -0.7211  -0.6613  -0.6433
 -0.6288  -0.6022  -0.5794  -0.5653  -0.5267  -0.5234  -0.5214  -0.5074
 -0.4856  -0.4749  -0.4613  -0.4480  -0.4461  -0.4431  -0.4329  -0.4300
 -0.4156  -0.4073  -0.3938  -0.3881  -0.3855  -0.3834  -0.3598  -0.3487
 -0.3334  -0.3172  -0.3122  -0.2855  -0.2697  -0.2311  -0.2269

          Ground-State Mulliken Net Atomic Charges

     Atom                 Charge (a.u.)
  ----------------------------------------
      1 C                    -0.336100
      2 C                    -0.128035
      3 C                     0.155715
      4 C                    -0.218253
      5 C                    -0.059348
      6 Cl                   -0.015449
      7 C                    -0.209616
      8 C                     0.166932
      9 C                    -0.315156
     10 C                     0.554485
     11 F                    -0.233278
     12 F                    -0.244498
     13 C                     0.211105
     14 O                    -0.533163
     15 C                    -0.042749
     16 C                    -0.460165
     17 H                     0.140676
     18 H                     0.170885
     19 H                     0.133584
     20 H                     0.151752
     21 H                     0.159152
     22 H                     0.184549
     23 H                     0.142249
     24 H                     0.150804
     25 H                     0.160334
     26 H                     0.147195
     27 H                     0.166393
  ----------------------------------------
  Sum of atomic charges =     0.000000

                    Cartesian Multipole Moments
 -----------------------------------------------------------------
    Charge (ESU x 10^10)
                 0.0000
    Dipole Moment (Debye)
         X       1.2497      Y      -2.0173      Z      -0.6626
       Tot       2.4638
    Quadrupole Moments (Debye-Ang)
        XX     -95.3078     XY      -0.2845     YY     -98.2873
        XZ      -1.5867     YZ       1.6463     ZZ     -98.9453

 Total job time:  71.42s(wall), 69.94s(cpu)
        *  Thank you very much for using Q-Chem.  Have a nice day.  *
