 Q-Chem 5.2, Q-Chem, Inc., Pleasanton, CA (2019)
 Q-Chem 5.2.1 for Intel X86 EM64T Linux

User input:
--------------------------------------------------------------
$molecule
0 1
C        -7.97426116460000   -0.54208162500000   -0.70965487890000
C        -7.13861968740000    0.01348721030000    0.16001397730000
C        -5.68297337380000    0.00821610060000    0.09971830600000
C        -4.96320523890000    0.69468340630000    1.07985238660000
C        -3.58421459910000    0.72897470820000    1.06401400840000
C        -2.87049238770000    0.06895442090000    0.06758850700000
C        -1.39698547810000    0.06946008950000    0.04909460770000
C        -0.73465588730000   -1.15339729280000    0.02769493320000
C         0.64756650320000   -1.25281070360000    0.03253956150000
C         1.28859481090000   -2.60882619530000   -0.00559886380000
C         1.39700609450000   -0.07324493430000    0.04598367500000
C         2.87050995430000   -0.07248673060000    0.06318076080000
C         3.58214887520000    0.63052640410000   -0.90646416000000
C         4.96094419080000    0.65760285130000   -0.89511169100000
C         5.68304091960000   -0.00930605560000    0.09608587120000
C         7.13861720440000   -0.01277056670000    0.15769475730000
C         7.97411766950000    0.57025808480000   -0.69398877760000
C         4.96366457310000   -0.70031627760000    1.07332549740000
C         3.58471944040000   -0.73523827960000    1.05747207370000
C         0.73461351760000    1.14961660670000    0.02753206700000
C        -0.64760783320000    1.24901054610000    0.03559270970000
C        -1.28868747350000    2.60507284710000    0.00066683900000
C        -3.58251434100000   -0.63109785390000   -0.90390632330000
C        -4.96132535440000   -0.65686974560000   -0.89300049790000
H        -9.04095567800000   -0.48169766640000   -0.57714008070000
H        -7.63959000040000   -1.07407469700000   -1.58363783580000
H        -7.54873793760000    0.53831080410000    1.01504930890000
H        -5.49926000500000    1.20920024770000    1.86560309070000
H        -3.04980364460000    1.25439981570000    1.84175075630000
H        -1.32505559650000   -2.05970138530000    0.02143813090000
H         0.67462124710000   -3.29886584430000   -0.58113386050000
H         1.38510371870000   -3.01361450820000    1.00225671080000
H         2.28013490670000   -2.56286480050000   -0.44956279520000
H         3.04000212000000    1.14752913600000   -1.68575640810000
H         5.48253959440000    1.20508180900000   -1.66505733300000
H         7.54892996640000   -0.55935342490000    0.99891499390000
H         7.63948040230000    1.12717964140000   -1.55231205780000
H         9.04074305260000    0.50938512740000   -0.56110361710000
H         5.49998041880000   -1.21696805130000    1.85749544150000
H         3.05069163980000   -1.26337136010000    1.83361011580000
H         1.32495217810000    2.05595278260000    0.02132320900000
H        -0.67793529310000    3.29493462260000   -0.57852078860000
H        -1.37920791950000    3.00993991900000    1.00904744420000
H        -2.28278468270000    2.55925265960000   -0.43754246370000
H        -3.04057617070000   -1.14682151900000   -1.68417633370000
H        -5.48328345510000   -1.20305224800000   -1.66361412350000
$end

$rem
BASIS = 6-31G*
GUI = 2
METHOD = B3LYP
PRINT_ORBITALS false
MOLDEN_FORMAT false
--------------------------------------------------------------

             Standard Nuclear Orientation (Angstroms)
    I     Atom           X                Y                Z
 ----------------------------------------------------------------
    1      C      -7.9740756653     0.5450621778     0.7048800913
    2      C      -7.1386202607    -0.0107242810    -0.1648284849
    3      C      -5.6829735086    -0.0060006459    -0.1044980349
    4      C      -4.9634374890    -0.6926306946    -1.0846885462
    5      C      -3.5844600630    -0.7274362266    -1.0688214184
    6      C      -2.8705160490    -0.0677877318    -0.0723086174
    7      C      -1.3970098650    -0.0688430464    -0.0537801366
    8      C      -0.7342263180     1.1537657846    -0.0322342204
    9      C       0.6480330403     1.2526659641    -0.0370357355
   10      C       1.2895644031     2.6084390233     0.0012626598
   11      C       1.3970344806     0.0728231694    -0.0505882801
   12      C       2.8705383613     0.0715191344    -0.0677508112
   13      C       3.5818931096    -0.6318620550     0.9018357080
   14      C       4.9606785332    -0.6594497549     0.8905127551
   15      C       5.6830464236     0.0072966245    -0.1005965626
   16      C       7.1386253457     0.0102267127    -0.1621708639
   17      C       7.9738890023    -0.5732034349     0.6894700030
   18      C       4.9639499679     0.6986785894    -1.0777792517
   19      C       3.5850175372     0.7341114183    -1.0619545093
   20      C       0.7341870076    -1.1497940550    -0.0322829159
   21      C      -0.6480709998    -1.2486733846    -0.0403866697
   22      C      -1.2896554330    -2.6045010409    -0.0056207756
   23      C      -3.5823006349     0.6324253290     0.8992442774
   24      C      -4.9611017171     0.6587108577     0.8883087963
   25      H      -9.0407894279     0.4850888498     0.5723337681
   26      H      -7.6392273738     1.0768374349     1.5789277579
   27      H      -7.5489134144    -0.5353040430    -1.0199295336
   28      H      -5.4996649505    -1.2068643002    -1.8705068267
   29      H      -3.0502261211    -1.2529768222    -1.8466017464
   30      H      -1.3242892826     2.0602885793    -0.0258944491
   31      H       0.6758338015     3.2986453250     0.5768569582
   32      H       1.3862474844     3.0132991253    -1.0065473850
   33      H       2.2810768942     2.5620616607     0.4452449839
   34      H       3.0395358861    -1.1487465118     1.6810599615
   35      H       5.4820522875    -1.2072048060     1.6604121499
   36      H       7.5491610375     0.5567469104    -1.0033230435
   37      H       7.6390245548    -1.1300922846     1.5477259001
   38      H       9.0405400653    -0.5127127243     0.5566164198
   39      H       5.5004762667     1.2152147765    -1.8618813758
   40      H       3.0512043421     1.2625258762    -1.8380486636
   41      H       1.3241886181    -2.0563502424    -0.0261570319
   42      H      -0.6791733367    -3.2946516542     0.5735074867
   43      H      -1.3803026092    -3.0092266923    -1.0140467662
   44      H      -2.2837458608    -2.5583581956     0.4325700539
   45      H      -3.0401891921     1.1478641571     1.6795821315
   46      H      -5.4828749233     1.2050049792     1.6589685128
 ----------------------------------------------------------------

    8    -927.7859212012      3.60e-06  Convergence criterion met
 Total energy in the final basis set =     -927.7859212012

                    Orbital Energies (a.u.)
 --------------------------------------------------------------

 Alpha MOs
 -- Occupied --
-10.1926 -10.1926 -10.1916 -10.1916 -10.1887 -10.1887 -10.1878 -10.1878
-10.1865 -10.1865 -10.1858 -10.1858 -10.1855 -10.1854 -10.1847 -10.1847
-10.1846 -10.1846 -10.1783 -10.1783 -10.1773 -10.1773 -10.1742 -10.1742
 -0.8772  -0.8662  -0.8516  -0.8091  -0.7904  -0.7819  -0.7586  -0.7487
 -0.7466  -0.7316  -0.7157  -0.7023  -0.6535  -0.6397  -0.6174  -0.6168
 -0.6026  -0.5858  -0.5673  -0.5592  -0.5549  -0.5082  -0.5040  -0.4851
 -0.4816  -0.4703  -0.4620  -0.4544  -0.4460  -0.4382  -0.4288  -0.4254
 -0.4250  -0.4205  -0.4144  -0.4131  -0.4070  -0.4020  -0.3903  -0.3903
 -0.3744  -0.3733  -0.3721  -0.3678  -0.3561  -0.3444  -0.3441  -0.3391
 -0.3371  -0.3273  -0.3214  -0.3016  -0.2943  -0.2522  -0.2521  -0.2500
 -0.2318  -0.2214  -0.2062

          Ground-State Mulliken Net Atomic Charges

     Atom                 Charge (a.u.)
  ----------------------------------------
      1 C                    -0.353579
      2 C                    -0.114104
      3 C                     0.183111
      4 C                    -0.204246
      5 C                    -0.161130
      6 C                     0.056099
      7 C                     0.038853
      8 C                    -0.241812
      9 C                     0.144113
     10 C                    -0.533437
     11 C                     0.038898
     12 C                     0.056265
     13 C                    -0.164792
     14 C                    -0.190084
     15 C                     0.183242
     16 C                    -0.113996
     17 C                    -0.353684
     18 C                    -0.204356
     19 C                    -0.161059
     20 C                    -0.241711
     21 C                     0.144192
     22 C                    -0.533472
     23 C                    -0.164661
     24 C                    -0.190062
     25 H                     0.143691
     26 H                     0.142106
     27 H                     0.125955
     28 H                     0.127373
     29 H                     0.132347
     30 H                     0.124250
     31 H                     0.154669
     32 H                     0.160575
     33 H                     0.170322
     34 H                     0.132717
     35 H                     0.126674
     36 H                     0.125901
     37 H                     0.142094
     38 H                     0.143696
     39 H                     0.127378
     40 H                     0.132341
     41 H                     0.124251
     42 H                     0.154702
     43 H                     0.160574
     44 H                     0.170364
     45 H                     0.132732
     46 H                     0.126702
  ----------------------------------------
  Sum of atomic charges =     0.000000

                    Cartesian Multipole Moments
 -----------------------------------------------------------------
    Charge (ESU x 10^10)
                 0.0000
    Dipole Moment (Debye)
         X      -0.0014      Y      -0.0001      Z      -0.1123
       Tot       0.1123
    Quadrupole Moments (Debye-Ang)
        XX    -131.1255     XY       0.5700     YY    -137.2749
        XZ      -0.0030     YZ      -0.0320     ZZ    -136.3772

 Total job time:  107.60s(wall), 107.31s(cpu)
        *  Thank you very much for using Q-Chem.  Have a nice day.  *
