 Q-Chem 5.2, Q-Chem, Inc., Pleasanton, CA (2019)
 Q-Chem 5.2.1 for Intel X86 EM64T Linux

User input:
--------------------------------------------------------------
$molecule
0 1
C         5.28547003590000   -1.38850027500000    0.65687726150000
C         4.13403823640000   -1.80498929890000    0.14310668580000
C         2.94758429560000   -1.00025673370000   -0.11419312480000
C         1.81660181910000   -1.61181817190000   -0.65256687410000
C         0.66726891010000   -0.89317059890000   -0.91528592000000
C         0.60176493940000    0.46830630400000   -0.64342676380000
O        -0.47437708190000    1.26844411230000   -0.89378995920000
C        -1.77068354990000    0.74114427530000   -1.05761770520000
C        -2.50366739210000    0.64333951730000    0.30214542550000
C        -2.10126963750000   -0.58513608570000    1.12906577250000
C        -2.72953177970000   -1.86279871330000    0.57610053920000
C        -4.23738188220000   -1.66174532910000    0.45505988270000
C        -4.50911778860000   -0.42340583370000   -0.39726217990000
O        -3.90566683210000    0.73488099340000    0.14108887420000
C         1.73604645380000    1.11309186660000   -0.10086441410000
C         1.67439246650000    2.54606468010000    0.17124724170000
C         2.46660618950000    3.21549728160000    0.99888417590000
C         2.87927907950000    0.36678556610000    0.14490541890000
H         6.10713454060000   -2.06695245400000    0.80974040410000
H         5.46078592330000   -0.36632202040000    0.94464465920000
H         4.02984061530000   -2.85040010320000   -0.12288531150000
H         1.83618210180000   -2.66917228990000   -0.87576289420000
H        -0.17522702940000   -1.41389895970000   -1.34308738010000
H        -1.76358590550000   -0.21304291970000   -1.58878454200000
H        -2.30447718770000    1.47470432260000   -1.67082589190000
H        -2.23812297310000    1.55174350930000    0.85758700220000
H        -2.45838338320000   -0.43433503770000    2.15024706940000
H        -1.01373043840000   -0.66404306330000    1.15885037040000
H        -2.50663198230000   -2.70004215600000    1.23980423350000
H        -2.31541471650000   -2.10113038220000   -0.40597353950000
H        -4.66549464470000   -1.51051059360000    1.44764142560000
H        -4.71312089610000   -2.53093437090000   -0.00063761630000
H        -5.57716280260000   -0.19591537000000   -0.42593339390000
H        -4.16280240300000   -0.59555156560000   -1.42693647590000
H         0.88355237020000    3.06727056950000   -0.34968017060000
H         3.24627316510000    2.74108632170000    1.57085342090000
H         2.35399978960000    4.27601355100000    1.14527333960000
H         3.74495262120000    0.87403188280000    0.53801604930000
$end

$rem
BASIS = 6-31G*
GUI = 2
METHOD = B3LYP
PRINT_ORBITALS false
MOLDEN_FORMAT false
--------------------------------------------------------------

             Standard Nuclear Orientation (Angstroms)
    I     Atom           X                Y                Z
 ----------------------------------------------------------------
    1      C       5.2630743625     1.5689416086    -0.5496199665
    2      C       4.0852375511     1.9450134654    -0.0653794222
    3      C       2.9265752874     1.0964611365     0.1773783818
    4      C       1.7608652491     1.6685491733     0.6841430545
    5      C       0.6357387802     0.9075605757     0.9319908913
    6      C       0.6303823000    -0.4586030462     0.6762844296
    7      O      -0.4181158186    -1.2982216358     0.9143520904
    8      C      -1.7376160104    -0.8214353673     1.0443105665
    9      C      -2.4446833652    -0.7693929009    -0.3316015646
   10      C      -2.0739899568     0.4642579847    -1.1656072061
   11      C      -2.7643573234     1.7222081264    -0.6422908596
   12      C      -4.2652373873     1.4622802844    -0.5501942456
   13      C      -4.5055524471     0.2243205335     0.3120599712
   14      O      -3.8450416590    -0.9151791366    -0.1986936767
   15      C       1.8008018692    -1.0638038185     0.1658268543
   16      C       1.8021467089    -2.5012492090    -0.0891358733
   17      C       2.6379244753    -3.1482104951    -0.8914089597
   18      C       2.9183695116    -0.2752227355    -0.0655584987
   19      H       6.0601218151     2.2779374089    -0.6939715208
   20      H       5.4851066289     0.5512511122    -0.8205477172
   21      H       3.9337901504     2.9885090797     0.1849667869
   22      H       1.7335077710     2.7284319312     0.8941375536
   23      H      -0.2357958064     1.3991471842     1.3354033275
   24      H      -1.7799139141     0.1385544620     1.5632442841
   25      H      -2.2547304334    -1.5684333223     1.6555854635
   26      H      -2.1313285019    -1.6729909824    -0.8696965683
   27      H      -2.4028994550     0.2870440850    -2.1920068361
   28      H      -0.9900723984     0.5863743049    -1.1736864295
   29      H      -2.5608721251     2.5597206085    -1.3118654352
   30      H      -2.3811559640     1.9886951604     0.3450823228
   31      H      -4.6656672735     1.2821265645    -1.5494795629
   32      H      -4.7848765659     2.3170709816    -0.1156998285
   33      H      -5.5640493256    -0.0454801498     0.3213363385
   34      H      -4.1884626103     0.4225287479     1.3464511904
   35      H       1.0217567983    -3.0474965605     0.4217989799
   36      H       3.4101089985    -2.6497759670    -1.4530042342
   37      H       2.5708353402    -4.2140662092    -1.0265214722
   38      H       3.8117790601    -0.7519941579    -0.4339792685
 ----------------------------------------------------------------

    9    -772.1322220340      2.76e-06  Convergence criterion met
 Total energy in the final basis set =     -772.1322220340

                    Orbital Energies (a.u.)
 --------------------------------------------------------------

 Alpha MOs
 -- Occupied --
-19.1819 -19.1470 -10.2503 -10.2411 -10.2349 -10.2303 -10.1918 -10.1895
-10.1880 -10.1875 -10.1863 -10.1862 -10.1851 -10.1834 -10.1822 -10.1803
-10.1740 -10.1739  -1.0728  -1.0381  -0.8652  -0.8068  -0.8015  -0.7829
 -0.7763  -0.7348  -0.7267  -0.6948  -0.6432  -0.6415  -0.6260  -0.6090
 -0.5696  -0.5593  -0.5462  -0.5342  -0.5005  -0.4968  -0.4851  -0.4762
 -0.4592  -0.4536  -0.4491  -0.4405  -0.4346  -0.4238  -0.4196  -0.4128
 -0.3991  -0.3957  -0.3821  -0.3781  -0.3698  -0.3633  -0.3536  -0.3443
 -0.3418  -0.3341  -0.3248  -0.3180  -0.3025  -0.2913  -0.2736  -0.2502
 -0.2291  -0.2011

          Ground-State Mulliken Net Atomic Charges

     Atom                 Charge (a.u.)
  ----------------------------------------
      1 C                    -0.356298
      2 C                    -0.117404
      3 C                     0.191263
      4 C                    -0.210572
      5 C                    -0.181917
      6 C                     0.318120
      7 O                    -0.527372
      8 C                    -0.070273
      9 C                     0.125215
     10 C                    -0.292658
     11 C                    -0.277875
     12 C                    -0.271602
     13 C                    -0.034726
     14 O                    -0.475464
     15 C                     0.101690
     16 C                    -0.102442
     17 C                    -0.346768
     18 C                    -0.266201
     19 H                     0.141052
     20 H                     0.140340
     21 H                     0.122978
     22 H                     0.128316
     23 H                     0.132080
     24 H                     0.139474
     25 H                     0.164152
     26 H                     0.147652
     27 H                     0.143868
     28 H                     0.161000
     29 H                     0.143125
     30 H                     0.128219
     31 H                     0.145122
     32 H                     0.134224
     33 H                     0.146566
     34 H                     0.117522
     35 H                     0.149252
     36 H                     0.139012
     37 H                     0.142159
     38 H                     0.129168
  ----------------------------------------
  Sum of atomic charges =     0.000000

                    Cartesian Multipole Moments
 -----------------------------------------------------------------
    Charge (ESU x 10^10)
                 0.0000
    Dipole Moment (Debye)
         X      -1.0378      Y       1.8631      Z       0.2023
       Tot       2.1422
    Quadrupole Moments (Debye-Ang)
        XX    -105.0404     XY      -5.2542     YY    -104.3751
        XZ      -4.9533     YZ       1.9400     ZZ    -108.6813

 Total job time:  83.87s(wall), 83.63s(cpu)
        *  Thank you very much for using Q-Chem.  Have a nice day.  *
