 Q-Chem 5.2, Q-Chem, Inc., Pleasanton, CA (2019)
 Q-Chem 5.2.1 for Intel X86 EM64T Linux

User input:
--------------------------------------------------------------
$molecule
0 1
C         3.77096343040000   -2.84815628750000    0.24514457560000
C         3.75597887890000   -1.52069733540000    0.18439385150000
C         2.57169730280000   -0.69687537340000    0.10021925790000
C         1.26407003770000   -1.11046563760000    0.12955769390000
N         0.42324511360000   -0.04052791750000    0.01976116200000
Si       -1.34954108480000   -0.00719627590000    0.05649342850000
C        -1.81363491280000    0.56148516520000    1.83971571790000
C        -1.12610370360000    1.86701370300000    2.23824042100000
C        -3.32221071830000    0.69620123410000    2.04387863510000
C        -1.88679859740000    1.26619802800000   -1.28886193430000
C        -1.03401385240000    1.20652428990000   -2.55792471400000
C        -3.36124380610000    1.11935117050000   -1.66765631220000
C        -2.10234510050000   -1.74564077390000   -0.27996165860000
C        -1.58172505400000   -2.39177846640000   -1.56398255680000
C        -1.94954974140000   -2.71011634440000    0.89709213120000
C         1.20621307910000    1.07728632280000   -0.07335181090000
C         2.53367885760000    0.73533826830000   -0.02981451980000
C         3.67185302740000    1.62300654910000   -0.10168539000000
C         3.61237876020000    2.94868682000000   -0.17245892740000
H         4.69387568960000   -3.39881810900000    0.30693800980000
H         2.86758638790000   -3.43351055980000    0.23422780230000
H         4.69737445310000   -0.98702401290000    0.19544498580000
H         0.87456238860000   -2.10132931390000    0.23080718020000
H        -1.45473126400000   -0.20908526500000    2.53133578700000
H        -1.43925296470000    2.68279203320000    1.59030323180000
H        -0.04533106150000    1.77081053000000    2.17677313770000
H        -1.38625957500000    2.13334573990000    3.26165374760000
H        -3.71243755660000    1.52289308050000    1.45537282600000
H        -3.54813020340000    0.89610100410000    3.09034100280000
H        -3.84393758520000   -0.21116821540000    1.75061412710000
H        -1.76260848060000    2.26818361890000   -0.86337459370000
H        -1.16469866590000    0.25551863430000   -3.06733915200000
H         0.02223856590000    1.32518793070000   -2.33352632810000
H        -1.32877034620000    1.99874700150000   -3.24491884300000
H        -3.53846302580000    0.16359297060000   -2.15438931950000
H        -3.65340775430000    1.90752638690000   -2.36017700370000
H        -4.00348688100000    1.18017311930000   -0.79380504820000
H        -3.17853182970000   -1.59147446830000   -0.41610919630000
H        -0.50343362150000   -2.52048112910000   -1.53382333610000
H        -1.82361395780000   -1.78207392850000   -2.43011049600000
H        -2.03760922870000   -3.37126395210000   -1.70515507000000
H        -0.90447945230000   -2.90886553900000    1.11712798970000
H        -2.43045205810000   -3.66040002280000    0.66750470230000
H        -2.41192534250000   -2.30676491180000    1.79376924290000
H         0.75736836300000    2.04502462040000   -0.16492908520000
H         4.64160357720000    1.14280213730000   -0.09431220520000
H         2.67667259060000    3.48084292200000   -0.18052864450000
H         4.50340302300000    3.55055361980000   -0.22385511450000
$end

$rem
BASIS = 6-31G*
GUI = 2
METHOD = B3LYP
PRINT_ORBITALS false
MOLDEN_FORMAT false
--------------------------------------------------------------

             Standard Nuclear Orientation (Angstroms)
    I     Atom           X                Y                Z
 ----------------------------------------------------------------
    1      C       3.8319209158    -2.8451257161     0.2618757336
    2      C       3.8164359654    -1.5179129964     0.1960800683
    3      C       2.6318698330    -0.6948953234     0.1081265190
    4      C       1.3243930211    -1.1089000407     0.1383125290
    5      N       0.4831986295    -0.0397267312     0.0239928630
    6      Si     -1.2896208895    -0.0069728447     0.0596200847
    7      C      -1.7549301664     0.5682829253     1.8404152644
    8      C      -1.0681448481     1.8755921212     2.2343625429
    9      C      -3.2636727914     0.7031626314     2.0432329990
   10      C      -1.8266460659     1.2610902022    -1.2908538356
   11      C      -0.9731352515     1.1969465030    -2.5592102488
   12      C      -3.3008222409     1.1122108988    -1.6699018692
   13      C      -2.0415391900    -1.7469857315    -0.2706513301
   14      C      -1.5199487919    -2.3977801938    -1.5519236829
   15      C      -1.8890072181    -2.7069263569     0.9101378828
   16      C       1.2657682551     1.0780426893    -0.0729289616
   17      C       2.5933471921     0.7367991257    -0.0273618993
   18      C       3.7312037690     1.6246485017    -0.1019724580
   19      C       3.6712353752     2.9500265324    -0.1778086649
   20      H       4.7550202887    -3.3951758525     0.3262675320
   21      H       2.9287856065    -3.4308824603     0.2526816804
   22      H       4.7576105138    -0.9838209418     0.2056255680
   23      H       0.9352280466    -2.0995298396     0.2431062135
   24      H      -1.3960993335    -0.1995125222     2.5351522801
   25      H      -1.3812636634     2.6887793895     1.5831617911
   26      H       0.0127002567     1.7795934687     2.1738571745
   27      H      -1.3289741282     2.1457001884     3.2566141690
   28      H      -3.6539064439     1.5274576699     1.4513792438
   29      H      -3.4902517231     0.9069402157     3.0888044708
   30      H      -3.7848722286    -0.2055239339     1.7531258019
   31      H      -1.7030945169     2.2647331600    -0.8691031814
   32      H      -1.1031555614     0.2439620354    -3.0650844137
   33      H       0.0829450071     1.3168878542    -2.3346809052
   34      H      -1.2678302147     1.9864375667    -3.2493681202
   35      H      -3.4773875855     0.1545411647    -2.1531024159
   36      H      -3.5929199727     1.8976345756    -2.3655694734
   37      H      -3.9435731977     1.1760883755    -0.7966422377
   38      H      -3.1177123464    -1.5937723306    -0.4079767436
   39      H      -0.4416225255    -2.5259314412    -1.5206812690
   40      H      -1.7616036252    -1.7914642896    -2.4204922975
   41      H      -1.9753607043    -3.3779785567    -1.6896300201
   42      H      -0.8439789808    -2.9044166049     1.1315030014
   43      H      -2.3694000879    -3.6582687177     0.6838926659
   44      H      -2.3520411696    -2.3003625456     1.8050227047
   45      H       0.8165850113     2.0452449610    -0.1684253918
   46      H       4.7011431919     1.1448677142    -0.0922420164
   47      H       2.7353198104     3.4817697560    -0.1884139803
   48      H       4.5620457472     3.5520542523    -0.2309965885
 ----------------------------------------------------------------

    9   -1009.5140535429      1.94e-06  Convergence criterion met
 Total energy in the final basis set =    -1009.5140535429

                    Orbital Energies (a.u.)
 --------------------------------------------------------------

 Alpha MOs
 -- Occupied --
-66.1432 -14.3592 -10.1956 -10.1952 -10.1852 -10.1817 -10.1803 -10.1795
-10.1789 -10.1784 -10.1784 -10.1780 -10.1774 -10.1724 -10.1715 -10.1694
-10.1682 -10.1640 -10.1632  -5.2862  -3.6469  -3.6443  -3.6438  -0.9678
 -0.8076  -0.7948  -0.7842  -0.7819  -0.7727  -0.7208  -0.7052  -0.6909
 -0.6865  -0.6844  -0.6210  -0.5995  -0.5931  -0.5806  -0.5770  -0.5484
 -0.5237  -0.5160  -0.4736  -0.4649  -0.4622  -0.4534  -0.4498  -0.4397
 -0.4341  -0.4282  -0.4215  -0.4167  -0.4150  -0.4072  -0.4045  -0.3991
 -0.3979  -0.3898  -0.3871  -0.3860  -0.3633  -0.3496  -0.3483  -0.3476
 -0.3406  -0.3400  -0.3386  -0.3368  -0.3344  -0.3234  -0.3076  -0.2847
 -0.2749  -0.2688  -0.1989  -0.1922

          Ground-State Mulliken Net Atomic Charges

     Atom                 Charge (a.u.)
  ----------------------------------------
      1 C                    -0.360435
      2 C                    -0.096000
      3 C                     0.037955
      4 C                    -0.053530
      5 N                    -0.508643
      6 Si                    0.900949
      7 C                    -0.271722
      8 C                    -0.465554
      9 C                    -0.464382
     10 C                    -0.295580
     11 C                    -0.464597
     12 C                    -0.463387
     13 C                    -0.301193
     14 C                    -0.465660
     15 C                    -0.464402
     16 C                    -0.059870
     17 C                     0.043589
     18 C                    -0.094568
     19 C                    -0.360348
     20 H                     0.134183
     21 H                     0.127702
     22 H                     0.124300
     23 H                     0.145399
     24 H                     0.148005
     25 H                     0.139903
     26 H                     0.170144
     27 H                     0.140200
     28 H                     0.148935
     29 H                     0.144987
     30 H                     0.146229
     31 H                     0.144485
     32 H                     0.149170
     33 H                     0.167973
     34 H                     0.138370
     35 H                     0.148597
     36 H                     0.145454
     37 H                     0.150502
     38 H                     0.149290
     39 H                     0.158783
     40 H                     0.153084
     41 H                     0.141035
     42 H                     0.156779
     43 H                     0.144071
     44 H                     0.153207
     45 H                     0.148376
     46 H                     0.124965
     47 H                     0.128545
     48 H                     0.134704
  ----------------------------------------
  Sum of atomic charges =     0.000000

                    Cartesian Multipole Moments
 -----------------------------------------------------------------
    Charge (ESU x 10^10)
                -0.0000
    Dipole Moment (Debye)
         X      -2.8716      Y      -0.0846      Z       0.0520
       Tot       2.8733
    Quadrupole Moments (Debye-Ang)
        XX    -126.1535     XY       0.5487     YY    -123.1806
        XZ       0.2006     YZ      -0.7260     ZZ    -129.8634

 Total job time:  124.31s(wall), 123.97s(cpu)
        *  Thank you very much for using Q-Chem.  Have a nice day.  *
