 Q-Chem 5.2, Q-Chem, Inc., Pleasanton, CA (2019)
 Q-Chem 5.2.1 for Intel X86 EM64T Linux

User input:
--------------------------------------------------------------
$molecule
0 1
C         0.64233617380000   -4.60640585730000    0.08374238340000
C        -0.31420244450000   -3.70061954000000   -0.07828352020000
C        -0.15016984560000   -2.25105890700000   -0.05074076320000
C         1.09554089310000   -1.62822103010000   -0.04163758070000
C         1.22736399050000   -0.24118491700000   -0.01299836170000
C         2.57199294060000    0.31476337090000   -0.00787424870000
C         2.93633146320000    1.58911279670000    0.01562077870000
F         2.15902587080000    2.65996230030000    0.04009093790000
F         4.20736057330000    1.97536268900000    0.01773550690000
C         0.07588861420000    0.54901915980000    0.00732172790000
C        -1.16475669660000   -0.06562676450000   -0.00541534170000
C        -2.42684727570000    0.75140009090000    0.00560754060000
F        -2.21482041870000    2.06830443360000    0.10302902460000
F        -3.15558947140000    0.56409853350000   -1.11193566230000
F        -3.23399958280000    0.41761706280000    1.03027492790000
C        -1.28924773510000   -1.44637570470000   -0.03817710510000
H         0.42231516490000   -5.65929072040000    0.05254968360000
H         1.67206470490000   -4.34708455390000    0.26094426860000
H        -1.33283682120000   -4.03240520790000   -0.23343830890000
H         1.98902964170000   -2.23226819540000   -0.06581917440000
H         3.38687462990000   -0.39423925110000   -0.02563799920000
H         0.13583222360000    1.62401707070000    0.03074823850000
H        -2.27204008860000   -1.89374651960000   -0.04832595600000
$end

$rem
BASIS = 6-31G*
GUI = 2
METHOD = B3LYP
PRINT_ORBITALS false
MOLDEN_FORMAT false
--------------------------------------------------------------

             Standard Nuclear Orientation (Angstroms)
    I     Atom           X                Y                Z
 ----------------------------------------------------------------
    1      C      -1.3251753107    -4.3473288873     0.1012643532
    2      C      -1.8154276991    -3.1246964979    -0.0614931667
    3      C      -1.0595047907    -1.8768839116    -0.0406213760
    4      C       0.3325622243    -1.8327401133    -0.0381956078
    5      C       1.0330648470    -0.6282220247    -0.0158581391
    6      C       2.4869433005    -0.6862451303    -0.0174488964
    7      C       3.3514055681     0.3185831400    -0.0005323540
    8      F       3.0939028417     1.6165467458     0.0219232930
    9      F       4.6673898754     0.1372533762    -0.0041751355
   10      C       0.3182558186     0.5715071879     0.0048493651
   11      C      -1.0657988106     0.5326732460    -0.0012613566
   12      C      -1.8698775936     1.8030466066     0.0103941930
   13      F      -1.1255729638     2.9104691298     0.1015498540
   14      F      -2.6153635988     1.9352509182    -1.1039767092
   15      F      -2.7377860089     1.8403803517     1.0390780051
   16      C      -1.7570303180    -0.6692149317    -0.0277717131
   17      H      -1.9659012276    -5.2114712508     0.0752443814
   18      H      -0.2806368807    -4.5424741782     0.2740262644
   19      H      -2.8801226649    -2.9999491762    -0.2119373978
   20      H       0.8909943048    -2.7554167734    -0.0627162871
   21      H       2.9300816745    -1.6713126074    -0.0348524434
   22      H       0.8228287159     1.5227273616     0.0235287230
   23      H      -2.8368786471    -0.6640801732    -0.0328388169
 ----------------------------------------------------------------

    9    -922.5527235394      3.78e-06  Convergence criterion met
 Total energy in the final basis set =     -922.5527235394

                    Orbital Energies (a.u.)
 --------------------------------------------------------------

 Alpha MOs
 -- Occupied --
-24.7553 -24.7442 -24.7252 -24.7171 -24.7162 -10.4284 -10.3684 -10.2231
-10.2175 -10.2137 -10.2133 -10.2072 -10.2068 -10.2060 -10.2028 -10.1930
 -1.3043  -1.2976  -1.2359  -1.2152  -1.2081  -0.8916  -0.8289  -0.8129
 -0.7676  -0.7444  -0.6997  -0.6598  -0.6454  -0.6242  -0.5992  -0.5837
 -0.5787  -0.5776  -0.5404  -0.5303  -0.5240  -0.5122  -0.4968  -0.4622
 -0.4553  -0.4541  -0.4512  -0.4512  -0.4433  -0.4286  -0.4206  -0.4181
 -0.4083  -0.4046  -0.3959  -0.3927  -0.3869  -0.3606  -0.3568  -0.3311
 -0.3016  -0.2471  -0.2333

          Ground-State Mulliken Net Atomic Charges

     Atom                 Charge (a.u.)
  ----------------------------------------
      1 C                    -0.349147
      2 C                    -0.110214
      3 C                     0.173416
      4 C                    -0.246852
      5 C                     0.196521
      6 C                    -0.300152
      7 C                     0.552053
      8 F                    -0.227811
      9 F                    -0.242854
     10 C                    -0.233873
     11 C                    -0.005648
     12 C                     0.780122
     13 F                    -0.264257
     14 F                    -0.266340
     15 F                    -0.267284
     16 C                    -0.231687
     17 H                     0.151656
     18 H                     0.146096
     19 H                     0.135595
     20 H                     0.133046
     21 H                     0.162875
     22 H                     0.162119
     23 H                     0.152618
  ----------------------------------------
  Sum of atomic charges =     0.000000

                    Cartesian Multipole Moments
 -----------------------------------------------------------------
    Charge (ESU x 10^10)
                 0.0000
    Dipole Moment (Debye)
         X       0.8151      Y      -2.8815      Z      -0.0169
       Tot       2.9946
    Quadrupole Moments (Debye-Ang)
        XX     -87.5697     XY       2.8659     YY     -83.2475
        XZ       0.3442     YZ      -0.0861     ZZ     -90.0723

 Total job time:  38.21s(wall), 38.09s(cpu)
        *  Thank you very much for using Q-Chem.  Have a nice day.  *
