 Q-Chem 5.2, Q-Chem, Inc., Pleasanton, CA (2019)
 Q-Chem 5.2.1 for Intel X86 EM64T Linux

User input:
--------------------------------------------------------------
$molecule
0 1
F        -2.55596125560000   -6.17748982670000    0.14739857550000
C        -2.07139418790000   -4.93419575730000    0.11007448000000
F        -0.74446320120000   -4.99500799910000    0.04718585920000
C        -2.84263602160000   -3.85705404580000    0.13323762060000
C        -2.45001057420000   -2.45874456010000    0.09713599860000
C        -1.12145310520000   -2.04139575300000    0.06617686330000
C        -0.84390724110000   -0.68591226410000    0.02696457400000
C         0.38295041450000    0.06285591500000    0.00647570670000
C         1.71939115120000   -0.30441993280000   -0.00778368200000
C         2.69288453050000    0.68554228330000   -0.04534271230000
C         4.11929858440000    0.32695549720000   -0.05234453360000
C         4.57940336330000   -0.74159657280000   -0.81859614460000
C         5.92016699480000   -1.07776224750000   -0.82578064650000
C         6.82391992450000   -0.35547209630000   -0.06474180610000
C         6.37764459430000    0.70705249330000    0.70297373950000
C         5.03780465530000    1.04719145470000    0.70801651330000
C         2.30920361540000    2.03310300820000   -0.08797461090000
C         0.98490317750000    2.42033470610000   -0.08076853040000
C         0.01796606790000    1.42768850330000   -0.01456728330000
N        -1.36002615060000    1.53366282100000   -0.01387661420000
C        -2.08995527780000    2.73175586070000   -0.03178324970000
C        -3.10443884940000    2.91804749010000   -0.96591981240000
C        -3.82376333820000    4.09875240260000   -0.97614977860000
C        -3.53279050330000    5.10213053850000   -0.06687344690000
C        -2.51985350280000    4.91958085630000    0.85989431560000
C        -1.80150015730000    3.73853696240000    0.88458008940000
C        -1.89244698200000    0.26492385090000    0.00904685290000
C        -3.21851548100000   -0.14417259110000    0.06589808350000
C        -3.47573125900000   -1.49684268820000    0.10559479060000
H        -3.90300702270000   -4.05931378170000    0.18295263490000
H        -0.31125083000000   -2.75085344150000    0.07834871970000
H         1.99721769760000   -1.34673005070000    0.02786507860000
H         3.88222106170000   -1.29845248240000   -1.42772272070000
H         6.26272236570000   -1.90573349270000   -1.42952039820000
H         7.87118983960000   -0.61948661460000   -0.06962452470000
H         7.07718228500000    1.27165871840000    1.30253907010000
H         4.69379735170000    1.86627269470000    1.32311941990000
H         3.07664991670000    2.79010858120000   -0.15368958270000
H         0.71407875160000    3.46380581910000   -0.13905461380000
H        -3.31294838590000    2.14221586660000   -1.68745291740000
H        -4.60970455980000    4.23885659580000   -1.70334204570000
H        -4.09391444730000    6.02413394730000   -0.08061653560000
H        -2.29259778960000    5.69775198070000    1.57329089830000
H        -1.02562678220000    3.58318805240000    1.61926166920000
H        -4.02546798870000    0.57226652520000    0.08998022080000
H        -4.50115995500000   -1.83342323630000    0.14754010010000
$end

$rem
BASIS = 6-31G*
GUI = 2
METHOD = B3LYP
PRINT_ORBITALS false
MOLDEN_FORMAT false
--------------------------------------------------------------

             Standard Nuclear Orientation (Angstroms)
    I     Atom           X                Y                Z
 ----------------------------------------------------------------
    1      F      -2.1504123610    -6.4109703813     0.1739804501
    2      C      -1.7518273970    -5.1376598463     0.1316864546
    3      F      -0.4239316792    -5.1080507077     0.0667617877
    4      C      -2.5947051421    -4.1155510323     0.1525537277
    5      C      -2.2984186419    -2.6938530986     0.1111196602
    6      C      -1.0014667029    -2.1869780741     0.0765245637
    7      C      -0.8170752645    -0.8158652788     0.0323171101
    8      C       0.3558245892     0.0147557002     0.0072569931
    9      C       1.7141810535    -0.2605672098    -0.0080313158
   10      C       2.6178314125     0.7933466019    -0.0505393816
   11      C       4.0653695105     0.5328536363    -0.0587510496
   12      C       4.5961672127    -0.5044665227    -0.8222051428
   13      C       5.9567249336    -0.7484326711    -0.8305298113
   14      C       6.8102167114     0.0364304670    -0.0734339279
   15      C       6.2936294748     1.0686854250     0.6914808787
   16      C       4.9337191780     1.3166711982     0.6976490052
   17      C       2.1430719466     2.1114479126    -0.0970239463
   18      C       0.7954561389     2.4074837411    -0.0888760345
   19      C      -0.1014284581     1.3514380756    -0.0177280541
   20      N      -1.4834372924     1.3631888327    -0.0150655534
   21      C      -2.2934078623     2.5086425828    -0.0357414454
   22      C      -3.3195941540     2.6220918832    -0.9687814000
   23      C      -4.1177876568     3.7509477893    -0.9817405026
   24      C      -3.8946041132     4.7749623889    -0.0763126881
   25      C      -2.8702267384     4.6651154244     0.8493486309
   26      C      -2.0729579474     3.5359049272     0.8767662112
   27      C      -1.9280500333     0.0611795423     0.0129936618
   28      C      -3.2230439523    -0.4372033808     0.0734489106
   29      C      -3.3873438502    -1.8041211772     0.1180970695
   30      H      -3.6387382514    -4.3894841863     0.2047335813
   31      H      -0.1447457138    -2.8394822442     0.0896983042
   32      H       2.0625029842    -1.2813737493     0.0306293542
   33      H       3.9377025664    -1.1096698869    -1.4282909857
   34      H       6.3540749073    -1.5531902158    -1.4320782677
   35      H       7.8730467616    -0.1555611752    -0.0792024405
   36      H       6.9539014907     1.6817486916     1.2879756834
   37      H       4.5355435425     2.1124996379     1.3105926781
   38      H       2.8570030677     2.9187994704    -0.1665619707
   39      H       0.4540078681     3.4298480745    -0.1501895643
   40      H      -3.4757529519     1.8313637802    -1.6873664356
   41      H      -4.9125125002     3.8346173305    -1.7080690874
   42      H      -4.5173260212     5.6564977778    -0.0921878958
   43      H      -2.6955368505     5.4594280024     1.5597577481
   44      H      -1.2872268244     3.4363654473     1.6106519625
   45      H      -4.0769461243     0.2226125248     0.0965001087
   46      H      -4.3873660260    -2.2097053340     0.1628968975
 ----------------------------------------------------------------

    9   -1255.4427712782      4.55e-06  Convergence criterion met
 Total energy in the final basis set =    -1255.4427712782

                    Orbital Energies (a.u.)
 --------------------------------------------------------------

 Alpha MOs
 -- Occupied --
-24.7376 -24.7264 -14.3865 -10.3476 -10.2400 -10.2243 -10.2234 -10.2005
-10.2004 -10.1997 -10.1996 -10.1981 -10.1971 -10.1967 -10.1895 -10.1888
-10.1888 -10.1879 -10.1878 -10.1874 -10.1868 -10.1862 -10.1857 -10.1852
-10.1819 -10.1817 -10.1804 -10.1801 -10.1798  -1.2773  -1.2166  -1.0060
 -0.8806  -0.8651  -0.8573  -0.8436  -0.8082  -0.7899  -0.7686  -0.7626
 -0.7577  -0.7430  -0.7360  -0.7208  -0.7092  -0.6610  -0.6400  -0.6273
 -0.6232  -0.6111  -0.6028  -0.5887  -0.5816  -0.5744  -0.5618  -0.5467
 -0.5294  -0.5235  -0.5140  -0.5113  -0.5065  -0.4791  -0.4760  -0.4688
 -0.4546  -0.4512  -0.4484  -0.4418  -0.4390  -0.4379  -0.4339  -0.4326
 -0.4308  -0.4234  -0.4194  -0.4145  -0.4127  -0.4048  -0.3856  -0.3829
 -0.3752  -0.3713  -0.3689  -0.3630  -0.3579  -0.3492  -0.3427  -0.3374
 -0.3316  -0.3293  -0.2947  -0.2806  -0.2673  -0.2656  -0.2487  -0.2468
 -0.2326  -0.2097  -0.1895

          Ground-State Mulliken Net Atomic Charges

     Atom                 Charge (a.u.)
  ----------------------------------------
      1 F                    -0.254149
      2 C                     0.539647
      3 F                    -0.238718
      4 C                    -0.302613
      5 C                     0.185372
      6 C                    -0.270444
      7 C                     0.060864
      8 C                     0.066144
      9 C                    -0.253570
     10 C                     0.079837
     11 C                     0.086805
     12 C                    -0.170277
     13 C                    -0.133570
     14 C                    -0.125292
     15 C                    -0.133481
     16 C                    -0.172361
     17 C                    -0.190135
     18 C                    -0.178810
     19 C                     0.315215
     20 N                    -0.735982
     21 C                     0.277125
     22 C                    -0.154885
     23 C                    -0.140726
     24 C                    -0.120558
     25 C                    -0.140664
     26 C                    -0.154800
     27 C                     0.317537
     28 C                    -0.174362
     29 C                    -0.209360
     30 H                     0.155642
     31 H                     0.141791
     32 H                     0.137621
     33 H                     0.129612
     34 H                     0.127095
     35 H                     0.125271
     36 H                     0.126217
     37 H                     0.127578
     38 H                     0.131338
     39 H                     0.141468
     40 H                     0.152352
     41 H                     0.137858
     42 H                     0.133972
     43 H                     0.137936
     44 H                     0.152737
     45 H                     0.141982
     46 H                     0.125743
  ----------------------------------------
  Sum of atomic charges =     0.000000

                    Cartesian Multipole Moments
 -----------------------------------------------------------------
    Charge (ESU x 10^10)
                 0.0000
    Dipole Moment (Debye)
         X      -1.7393      Y       2.8568      Z      -0.0348
       Tot       3.3448
    Quadrupole Moments (Debye-Ang)
        XX    -144.6951     XY      -6.9410     YY    -156.1227
        XZ       3.1524     YZ       4.7859     ZZ    -164.0515

 Total job time:  163.81s(wall), 162.83s(cpu)
        *  Thank you very much for using Q-Chem.  Have a nice day.  *
