 Q-Chem 5.2, Q-Chem, Inc., Pleasanton, CA (2019)
 Q-Chem 5.2.1 for Intel X86 EM64T Linux

User input:
--------------------------------------------------------------
$molecule
0 1
C        -4.85610469260000    0.70894646600000    1.26306167520000
C        -4.09538387990000    1.10541354360000   -0.00055966320000
C        -3.80288876260000    2.60601882100000   -0.00468652310000
O        -2.77585733160000    0.49435440290000   -0.00168761760000
C        -2.64209074140000   -0.82512098530000    0.00067259630000
N        -1.30213695850000   -1.19693349160000    0.00054253960000
C        -0.92200147190000   -2.53280750200000    0.00082174530000
C         0.42317784450000   -2.64079888420000    0.00087717400000
C        -0.14989834010000   -0.42636792810000    0.00045917920000
C         0.95414302140000   -1.31083592540000    0.00058721190000
C         2.25334064460000   -0.82311013930000    0.00057323480000
C         2.45440620430000    0.55293527180000    0.00063658660000
C         3.77390651250000    1.16482859170000    0.00040673780000
C         4.95908288210000    0.57311622240000   -0.00119238240000
F         5.22816761750000   -0.72764349230000   -0.00267355040000
F         6.10877572160000    1.24886563540000   -0.00143321780000
C         1.34233295060000    1.41334629710000    0.00085575670000
C         0.04508739800000    0.94701244940000    0.00069361800000
O        -3.52263994660000   -1.64553883560000    0.00269528530000
C        -4.86153824830000    0.70321451620000   -1.25906421260000
H        -4.27034578820000    0.95609208940000    2.14610518630000
H        -5.06038437950000   -0.35814258560000    1.26356756280000
H        -5.79860630910000    1.24732526860000    1.30385302580000
H        -3.22771426270000    2.87789317830000    0.87679753990000
H        -4.73426660180000    3.16392838090000   -0.00362654320000
H        -3.23210839950000    2.87385562710000   -0.89025285970000
H        -1.68479148460000   -3.28656490110000    0.00092090420000
H         0.99465361310000   -3.54706533340000    0.00102921010000
H         3.07976413830000   -1.51388511420000    0.00068533300000
H         3.80497636250000    2.24494076790000    0.00140382930000
H         1.51313570350000    2.47967357770000    0.00107906940000
H        -0.78506389750000    1.63228893140000    0.00074356050000
H        -5.80400105150000    1.24178236180000   -1.29826489470000
H        -5.06621546060000   -0.36377823540000   -1.25376140640000
H        -4.27953558910000    0.94605851230000   -2.14577274800000
$end

$rem
BASIS = 6-31G*
GUI = 2
METHOD = B3LYP
PRINT_ORBITALS false
MOLDEN_FORMAT false
--------------------------------------------------------------

             Standard Nuclear Orientation (Angstroms)
    I     Atom           X                Y                Z
 ----------------------------------------------------------------
    1      C      -4.7108528023     0.5961558748     1.2627500508
    2      C      -3.9566851129     1.0056638390    -0.0006404307
    3      C      -3.6891455957     2.5109201843    -0.0041851617
    4      O      -2.6271944612     0.4165984629    -0.0018434268
    5      C      -2.4715382867    -0.9004747870     0.0000489499
    6      N      -1.1255957208    -1.2499877240    -0.0000662889
    7      C      -0.7233321130    -2.5793659244    -0.0002331779
    8      C       0.6234548188    -2.6650074282    -0.0000657898
    9      C       0.0136897617    -0.4603969377     0.0002621166
   10      C       1.1322644191    -1.3264117836     0.0001907795
   11      C       2.4231848484    -0.8171817223     0.0005016039
   12      C       2.6013751302     0.5620123223     0.0010912020
   13      C       3.9105338185     1.1957299721     0.0012338838
   14      C       5.1053716334     0.6237781572    -0.0004483268
   15      F       5.3960169567    -0.6723338006    -0.0023752439
   16      F       6.2436860110     1.3185236585    -0.0003123838
   17      C       1.4751690876     1.4038400270     0.0015000330
   18      C       0.1858452915     0.9160314302     0.0010211416
   19      O      -3.3383442808    -1.7354006380     0.0016722233
   20      C      -4.7159217829     0.5912621325    -1.2593783618
   21      H      -4.1293722613     0.8526684172     2.1459499102
   22      H      -4.8973866718    -0.4741779972     1.2628424017
   23      H      -5.6621679547     1.1187963718     1.3036322978
   24      H      -3.1186584244     2.7919828829     0.8774631080
   25      H      -4.6296585565     3.0532880544    -0.0030258820
   26      H      -3.1227966926     2.7885228481    -0.8895891345
   27      H      -1.4735017591    -3.3456845678    -0.0004957772
   28      H       1.2098992358    -3.5616603079    -0.0001810740
   29      H       3.2609638755    -1.4941397482     0.0004539572
   30      H       3.9236653362     2.2762086890     0.0026297727
   31      H       1.6282432087     2.4728561225     0.0021328336
   32      H      -0.6555697450     1.5874297665     0.0012283969
   33      H      -5.6671927456     1.1141217119    -1.2984880681
   34      H      -4.9028552329    -0.4789838175    -1.2544891021
   35      H      -4.1379370340     0.8440621855    -2.1459324164
 ----------------------------------------------------------------

    9    -985.5158887427      6.32e-06  Convergence criterion met
 Total energy in the final basis set =     -985.5158887427

                    Orbital Energies (a.u.)
 --------------------------------------------------------------

 Alpha MOs
 -- Occupied --
-24.7395 -24.7285 -19.2022 -19.1385 -14.3988 -10.3533 -10.3499 -10.2668
-10.2236 -10.2198 -10.1996 -10.1977 -10.1898 -10.1882 -10.1874 -10.1860
-10.1845 -10.1825 -10.1796 -10.1795  -1.2799  -1.2190  -1.1294  -1.0383
 -0.9944  -0.8617  -0.8322  -0.8041  -0.7909  -0.7396  -0.7281  -0.7069
 -0.7027  -0.6717  -0.6492  -0.6214  -0.6026  -0.5844  -0.5646  -0.5600
 -0.5265  -0.5146  -0.5136  -0.4991  -0.4966  -0.4832  -0.4627  -0.4568
 -0.4531  -0.4494  -0.4387  -0.4359  -0.4346  -0.4253  -0.4201  -0.4131
 -0.4073  -0.4037  -0.3950  -0.3912  -0.3782  -0.3750  -0.3673  -0.3636
 -0.3483  -0.3478  -0.3356  -0.3092  -0.2874  -0.2867  -0.2799  -0.2168
 -0.2084

          Ground-State Mulliken Net Atomic Charges

     Atom                 Charge (a.u.)
  ----------------------------------------
      1 C                    -0.469979
      2 C                     0.302580
      3 C                    -0.457811
      4 O                    -0.506315
      5 C                     0.823214
      6 N                    -0.616826
      7 C                     0.049993
      8 C                    -0.222942
      9 C                     0.309157
     10 C                     0.102086
     11 C                    -0.281836
     12 C                     0.198517
     13 C                    -0.301425
     14 C                     0.540870
     15 F                    -0.237085
     16 F                    -0.252329
     17 C                    -0.222911
     18 C                    -0.138606
     19 O                    -0.498800
     20 C                    -0.469979
     21 H                     0.151381
     22 H                     0.190912
     23 H                     0.148533
     24 H                     0.157901
     25 H                     0.154083
     26 H                     0.157930
     27 H                     0.183136
     28 H                     0.140273
     29 H                     0.138883
     30 H                     0.156209
     31 H                     0.123632
     32 H                     0.156681
     33 H                     0.148489
     34 H                     0.191016
     35 H                     0.151367
  ----------------------------------------
  Sum of atomic charges =     0.000000

                    Cartesian Multipole Moments
 -----------------------------------------------------------------
    Charge (ESU x 10^10)
                 0.0000
    Dipole Moment (Debye)
         X      -2.0862      Y       1.9415      Z      -0.0001
       Tot       2.8499
    Quadrupole Moments (Debye-Ang)
        XX    -115.3069     XY      -9.3239     YY    -107.2360
        XZ       0.0117     YZ       0.0116     ZZ    -115.4365

 Total job time:  78.02s(wall), 77.80s(cpu)
        *  Thank you very much for using Q-Chem.  Have a nice day.  *
