 Q-Chem 5.2, Q-Chem, Inc., Pleasanton, CA (2019)
 Q-Chem 5.2.1 for Intel X86 EM64T Linux

User input:
--------------------------------------------------------------
$molecule
0 1
C         4.04899009420000    0.58934820050000   -0.09843795260000
C         3.30824915510000   -0.51280062570000   -0.10528041030000
C         1.85506333470000   -0.57722420430000   -0.02428573100000
C         1.22354630260000   -1.82383714290000    0.05700622360000
C        -0.14685175040000   -1.93145733430000    0.14774946160000
C        -0.97507721140000   -0.80634511360000    0.14400026060000
C        -2.41834443590000   -0.95819658690000    0.29384991290000
C        -3.11522209590000   -1.94560342050000   -0.25302447290000
C        -0.33730047470000    0.44032270160000    0.04623951210000
N        -1.08950933080000    1.66502213820000   -0.01969996630000
O        -2.24653521990000    1.61433445590000   -0.38280478780000
O        -0.51264135120000    2.69029839380000    0.28282026260000
C         1.04368525860000    0.55171349590000   -0.02802902720000
H         5.12223473370000    0.53892934010000   -0.15990035680000
H         3.62737142370000    1.57713150520000   -0.02840339560000
H         3.79678342220000   -1.47724262730000   -0.16795227290000
H         1.82698337830000   -2.72018735800000    0.05890511740000
H        -0.60190693650000   -2.90531267230000    0.24345561930000
H        -2.92727740400000   -0.20485659780000    0.87896795250000
H        -2.66014275820000   -2.68278173940000   -0.89388962130000
H        -4.17766106940000   -2.02845159160000   -0.10721540590000
H         1.46577289520000    1.54149268770000   -0.10555019250000
$end

$rem
BASIS = 6-31G*
GUI = 2
METHOD = B3LYP
PRINT_ORBITALS false
MOLDEN_FORMAT false
--------------------------------------------------------------

             Standard Nuclear Orientation (Angstroms)
    I     Atom           X                Y                Z
 ----------------------------------------------------------------
    1      C       4.0418857092    -0.4735590824     0.0921727666
    2      C       3.2579640592     0.5983204662     0.0963047309
    3      C       1.8032379199     0.6046814391     0.0176220651
    4      C       1.1225742077     1.8249214413    -0.0670963526
    5      C      -0.2511610221     1.8776963602    -0.1558296095
    6      C      -1.0340364922     0.7206014440    -0.1465380392
    7      C      -2.4824350775     0.8144596552    -0.2944104295
    8      C      -3.2171033206     1.7754303776     0.2500894925
    9      C      -0.3470893955    -0.4993838066    -0.0453617276
   10      N      -1.0499528815    -1.7527374822     0.0263486062
   11      O      -2.2074943973    -1.7466952450     0.3912929734
   12      O      -0.4333028708    -2.7554086106    -0.2734512065
   13      C       1.0373484561    -0.5555668622     0.0268921297
   14      H       5.1123780922    -0.3803302093     0.1515712503
   15      H       3.6597224537    -1.4775597427     0.0264694962
   16      H       3.7079053082     1.5816285979     0.1546130290
   17      H       1.6899283417     2.7445160646    -0.0733119468
   18      H      -0.7446916223     2.8323503863    -0.2542793304
   19      H      -2.9619828681     0.0393406801    -0.8758926015
   20      H      -2.7906351262     2.5324682629     0.8874714308
   21      H      -4.2822273841     1.8154792615     0.1058414696
   22      H       1.4985408547    -1.5275086780     0.1072726658
 ----------------------------------------------------------------

   10    -591.5389732891      2.96e-06  Convergence criterion met
 Total energy in the final basis set =     -591.5389732891

                    Orbital Energies (a.u.)
 --------------------------------------------------------------

 Alpha MOs
 -- Occupied --
-19.1783 -19.1762 -14.5716 -10.2509 -10.2281 -10.2187 -10.2152 -10.2138
-10.2105 -10.2058 -10.2012 -10.1951 -10.1899  -1.2402  -1.0612  -0.9018
 -0.8339  -0.8120  -0.7814  -0.7375  -0.7060  -0.6585  -0.6058  -0.5901
 -0.5777  -0.5445  -0.5384  -0.5145  -0.5092  -0.4941  -0.4669  -0.4563
 -0.4538  -0.4277  -0.4139  -0.3997  -0.3742  -0.3723  -0.3644  -0.3362
 -0.3095  -0.3080  -0.2937  -0.2809  -0.2724  -0.2336

          Ground-State Mulliken Net Atomic Charges

     Atom                 Charge (a.u.)
  ----------------------------------------
      1 C                    -0.344472
      2 C                    -0.118698
      3 C                     0.176721
      4 C                    -0.177629
      5 C                    -0.192845
      6 C                     0.136724
      7 C                    -0.087008
      8 C                    -0.342174
      9 C                     0.223343
     10 N                     0.368735
     11 O                    -0.398015
     12 O                    -0.395647
     13 C                    -0.217033
     14 H                     0.153125
     15 H                     0.155160
     16 H                     0.134065
     17 H                     0.142404
     18 H                     0.146790
     19 H                     0.159472
     20 H                     0.145610
     21 H                     0.153389
     22 H                     0.177982
  ----------------------------------------
  Sum of atomic charges =     0.000000

                    Cartesian Multipole Moments
 -----------------------------------------------------------------
    Charge (ESU x 10^10)
                 0.0000
    Dipole Moment (Debye)
         X       2.0465      Y       3.7064      Z      -0.1881
       Tot       4.2381
    Quadrupole Moments (Debye-Ang)
        XX     -68.0225     XY      -4.8019     YY     -76.3273
        XZ       2.2319     YZ       0.5609     ZZ     -76.5272

 Total job time:  34.39s(wall), 33.65s(cpu)
        *  Thank you very much for using Q-Chem.  Have a nice day.  *
