 Q-Chem 5.2, Q-Chem, Inc., Pleasanton, CA (2019)
 Q-Chem 5.2.1 for Intel X86 EM64T Linux

User input:
--------------------------------------------------------------
$molecule
0 1
C        -3.93755173110000   -0.90897157850000    0.11494862870000
C        -3.08496120470000    0.10204217000000   -0.00028860490000
C        -1.63113800710000    0.00937318010000    0.00580423950000
C        -0.92357978590000   -1.19013205880000    0.04869973800000
C         0.46019589310000   -1.25061958860000    0.05591237200000
C         1.17592834400000   -2.52250868830000    0.11017287930000
C         0.68620333480000   -3.70460794540000   -0.24097481390000
C         1.21959801840000   -0.05543930900000    0.03271894350000
O         2.56278252550000   -0.20554996600000    0.04581770910000
C         3.41776599740000    0.91930546570000    0.05130215040000
C         0.52050293150000    1.14935396710000   -0.01598403430000
F         1.15562760740000    2.34697197520000   -0.05040071930000
C        -0.86743197540000    1.17450513790000   -0.03205614680000
F        -1.47068535230000    2.37745054650000   -0.07763957290000
H        -5.00027649160000   -0.74165905860000    0.10084211510000
H        -3.62208035190000   -1.93140343880000    0.23123521430000
H        -3.47048161470000    1.10758925450000   -0.10422748840000
H        -1.47449636130000   -2.11413284220000    0.09019950320000
H         2.19872380000000   -2.44735174320000    0.45058413540000
H        -0.31098859350000   -3.83146024220000   -0.62686188890000
H         1.28151308630000   -4.59802819660000   -0.16791016110000
H         4.42586160170000    0.50860618500000    0.08610514990000
H         3.25319488140000    1.54930852930000    0.92857081790000
H         3.30325237940000    1.51892341330000   -0.85458779530000
$end

$rem
BASIS = 6-31G*
GUI = 2
METHOD = B3LYP
PRINT_ORBITALS false
MOLDEN_FORMAT false
--------------------------------------------------------------

             Standard Nuclear Orientation (Angstroms)
    I     Atom           X                Y                Z
 ----------------------------------------------------------------
    1      C       3.9782506570    -0.6374656875    -0.1174441529
    2      C       3.0769977244     0.3300495662     0.0008622742
    3      C       1.6294936827     0.1659608794    -0.0049262127
    4      C       0.9818020074    -1.0667929467    -0.0508062330
    5      C      -0.3973237234    -1.1952889403    -0.0576539521
    6      C      -1.0496233554    -2.5007103506    -0.1150922473
    7      C      -0.5021362062    -3.6582166671     0.2326589415
    8      C      -1.2146120053    -0.0389970444    -0.0309268244
    9      O      -2.5487881670    -0.2549937341    -0.0439193890
   10      C      -3.4580958536     0.8264320187    -0.0460243273
   11      C      -0.5756304553     1.1986062539     0.0207782396
   12      F      -1.2689060737     2.3634189197     0.0586876840
   13      C       0.8093930367     1.2919896818     0.0363879187
   14      F       1.3527383513     2.5230389835     0.0850050696
   15      H       5.0314609050    -0.4180933522    -0.1032899382
   16      H       3.7134185495    -1.6738675666    -0.2363843471
   17      H       3.4126185614     1.3530678330     0.1073822104
   18      H       1.5775024034    -1.9624461042    -0.0950240002
   19      H      -2.0750535087    -2.4750645183    -0.4549072360
   20      H       0.5002889668    -3.7368774846     0.6178190771
   21      H      -1.0527943386    -4.5796520923     0.1573976131
   22      H      -4.4447760276     0.3667129675    -0.0815563338
   23      H      -3.3251806419     1.4661299463    -0.9216429289
   24      H      -3.3727630858     1.4285185353     0.8614456671
 ----------------------------------------------------------------

    9    -700.0201876347      3.02e-06  Convergence criterion met
 Total energy in the final basis set =     -700.0201876347

                    Orbital Energies (a.u.)
 --------------------------------------------------------------

 Alpha MOs
 -- Occupied --
-24.7169 -24.7168 -19.1942 -10.2795 -10.2789 -10.2670 -10.2439 -10.2037
-10.2029 -10.1962 -10.1935 -10.1892 -10.1815 -10.1796  -1.2353  -1.2199
 -1.0839  -0.8795  -0.8108  -0.7903  -0.7515  -0.7329  -0.7042  -0.6435
 -0.6394  -0.5876  -0.5593  -0.5559  -0.5414  -0.5163  -0.5037  -0.4951
 -0.4805  -0.4701  -0.4579  -0.4453  -0.4359  -0.4332  -0.4266  -0.4118
 -0.3975  -0.3863  -0.3695  -0.3653  -0.3559  -0.3436  -0.3286  -0.3041
 -0.2720  -0.2315  -0.2099

          Ground-State Mulliken Net Atomic Charges

     Atom                 Charge (a.u.)
  ----------------------------------------
      1 C                    -0.352113
      2 C                    -0.111873
      3 C                     0.118252
      4 C                    -0.271584
      5 C                     0.106655
      6 C                    -0.102283
      7 C                    -0.346125
      8 C                     0.260664
      9 O                    -0.507627
     10 C                    -0.215948
     11 C                     0.269309
     12 F                    -0.293749
     13 C                     0.225094
     14 F                    -0.279440
     15 H                     0.147276
     16 H                     0.142509
     17 H                     0.144486
     18 H                     0.136153
     19 H                     0.150699
     20 H                     0.140940
     21 H                     0.144626
     22 H                     0.165094
     23 H                     0.163881
     24 H                     0.165102
  ----------------------------------------
  Sum of atomic charges =     0.000000

                    Cartesian Multipole Moments
 -----------------------------------------------------------------
    Charge (ESU x 10^10)
                 0.0000
    Dipole Moment (Debye)
         X      -1.0188      Y      -0.7611      Z      -0.1075
       Tot       1.2762
    Quadrupole Moments (Debye-Ang)
        XX     -68.6334     XY      -3.9211     YY     -79.4130
        XZ       0.8288     YZ      -0.0560     ZZ     -81.7243

 Total job time:  39.41s(wall), 39.27s(cpu)
        *  Thank you very much for using Q-Chem.  Have a nice day.  *
