 Q-Chem 5.2, Q-Chem, Inc., Pleasanton, CA (2019)
 Q-Chem 5.2.1 for Intel X86 EM64T Linux

User input:
--------------------------------------------------------------
$molecule
0 1
C        -4.12595814620000    2.08469621470000   -0.06994073250000
C        -2.90830230820000    2.18649234120000    0.45490927120000
C        -1.89633559130000    1.16807195990000    0.39297789120000
C        -0.62897090850000    1.23295887710000    0.90176389510000
C         0.16789765410000    0.08137220850000    0.69120432300000
C         1.59406209870000    0.11930440780000    1.19650461960000
C         2.48659296380000   -1.09676782820000    0.93330231670000
C         2.82944083320000   -1.26658599480000   -0.54520123550000
C         3.50757985150000   -0.01311327720000   -1.08657738740000
C         2.61353459500000    1.19836688930000   -0.85013122560000
C         2.32666773860000    1.35460578280000    0.63892766330000
C        -0.53742597800000   -0.90223048530000    0.03055495830000
C        -0.21632250270000   -2.26578576890000   -0.32253546120000
C        -0.84862159740000   -2.96321821410000   -1.26222197480000
S        -2.15358258780000   -0.36348083160000   -0.37277456980000
H        -4.84453781720000    2.88122460800000    0.00670653050000
H        -4.43699403420000    1.19600438450000   -0.59403951440000
H        -2.60956310880000    3.08686723980000    0.97755101140000
H        -0.28248825670000    2.09780932520000    1.44073623370000
H         1.51852101280000    0.24247819950000    2.28699678570000
H         2.03162667530000   -2.00155228720000    1.33726437660000
H         3.41785170240000   -0.94115170950000    1.48622749900000
H         1.92301701470000   -1.45161994890000   -1.12257509080000
H         3.48708649100000   -2.13045174100000   -0.66767563870000
H         3.70897899330000   -0.13080881380000   -2.15325714050000
H         4.46408881760000    0.13777960820000   -0.57947110760000
H         1.67232540070000    1.06942117910000   -1.38963358890000
H         3.09734488250000    2.10163884430000   -1.22833389410000
H         1.74616930790000    2.26123376720000    0.80744634100000
H         3.27272991540000    1.46544942240000    1.17508953300000
H         0.56374446740000   -2.74438154990000    0.24852149750000
H        -1.63557984780000   -2.53128549990000   -1.85818417770000
H        -0.59487612800000   -3.98846426760000   -1.46658253020000
$end

$rem
BASIS = 6-31G*
GUI = 2
METHOD = B3LYP
PRINT_ORBITALS false
MOLDEN_FORMAT false
--------------------------------------------------------------

             Standard Nuclear Orientation (Angstroms)
    I     Atom           X                Y                Z
 ----------------------------------------------------------------
    1      C       4.5675280935     0.9210456775     0.4816673304
    2      C       3.4271304480     1.4498445676     0.0476389197
    3      C       2.1995036890     0.7254286586    -0.1346968602
    4      C       1.0015210296     1.2273143580    -0.5615868243
    5      C      -0.0540062755     0.2868828592    -0.6448778746
    6      C      -1.4126540967     0.8006100722    -1.0701692017
    7      C      -2.5781363015    -0.1914444417    -1.1170472602
    8      C      -2.9991321323    -0.6712913000     0.2703478270
    9      C      -3.3748891754     0.5110695528     1.1563410426
   10      C      -2.2098982295     1.4911819701     1.2276407424
   11      C      -1.8461361981     1.9746191785    -0.1716323581
   12      C       0.3739235244    -0.9784573953    -0.3025280608
   13      C      -0.2751925233    -2.2689149028    -0.3232904166
   14      C       0.1413181271    -3.3262633644     0.3679099982
   15      S       2.0581597145    -0.9722784171     0.1751730603
   16      H       5.4578443331     1.5127294291     0.5997196896
   17      H       4.6399263426    -0.1244456494     0.7324708485
   18      H       3.3694126817     2.5028905937    -0.1990130259
   19      H       0.8895011315     2.2631079869    -0.8319399418
   20      H      -1.2747293882     1.1949291873    -2.0877843614
   21      H      -2.3399903676    -1.0330571855    -1.7680381130
   22      H      -3.4268247992     0.3267961776    -1.5734899907
   23      H      -2.1823685474    -1.2176900232     0.7431564071
   24      H      -3.8478978627    -1.3527832253     0.1758633904
   25      H      -3.6328739703     0.1584020711     2.1569853561
   26      H      -4.2506884051     1.0184342137     0.7435558027
   27      H      -1.3447419059     0.9990840050     1.6780945937
   28      H      -2.4755668790     2.3453005483     1.8544672739
   29      H      -1.0605255736     2.7269464963    -0.1070504071
   30      H      -2.7204392116     2.4500939425    -0.6236362239
   31      H      -1.1282573038    -2.3728808798    -0.9753149602
   32      H       0.9891072079    -3.2742264593     1.0309227732
   33      H      -0.3567227907    -4.2769294979     0.2939599010
 ----------------------------------------------------------------

    9    -942.4714076377      3.15e-06  Convergence criterion met
 Total energy in the final basis set =     -942.4714076377

                    Orbital Energies (a.u.)
 --------------------------------------------------------------

 Alpha MOs
 -- Occupied --
-88.8944 -10.2150 -10.2133 -10.1962 -10.1951 -10.1940 -10.1930 -10.1835
-10.1804 -10.1798 -10.1780 -10.1763 -10.1711 -10.1705 -10.1702  -7.9566
 -5.9207  -5.9170  -5.9133  -0.8882  -0.8373  -0.8040  -0.7787  -0.7545
 -0.7394  -0.7144  -0.6991  -0.6281  -0.6097  -0.6036  -0.5743  -0.5589
 -0.5425  -0.5092  -0.4913  -0.4779  -0.4606  -0.4441  -0.4426  -0.4337
 -0.4221  -0.4073  -0.3977  -0.3917  -0.3812  -0.3749  -0.3740  -0.3616
 -0.3561  -0.3498  -0.3375  -0.3307  -0.3140  -0.3076  -0.2998  -0.2920
 -0.2654  -0.2392  -0.1984

          Ground-State Mulliken Net Atomic Charges

     Atom                 Charge (a.u.)
  ----------------------------------------
      1 C                    -0.373619
      2 C                    -0.056208
      3 C                    -0.127714
      4 C                    -0.191226
      5 C                     0.178772
      6 C                    -0.155657
      7 C                    -0.286106
      8 C                    -0.270524
      9 C                    -0.255233
     10 C                    -0.259442
     11 C                    -0.268317
     12 C                    -0.248620
     13 C                    -0.057015
     14 C                    -0.375709
     15 S                     0.234451
     16 H                     0.146015
     17 H                     0.156657
     18 H                     0.136451
     19 H                     0.136710
     20 H                     0.136263
     21 H                     0.137746
     22 H                     0.130610
     23 H                     0.157039
     24 H                     0.127214
     25 H                     0.130200
     26 H                     0.124314
     27 H                     0.145952
     28 H                     0.128556
     29 H                     0.134012
     30 H                     0.128625
     31 H                     0.149528
     32 H                     0.161031
     33 H                     0.145245
  ----------------------------------------
  Sum of atomic charges =     0.000000

                    Cartesian Multipole Moments
 -----------------------------------------------------------------
    Charge (ESU x 10^10)
                 0.0000
    Dipole Moment (Debye)
         X      -0.8507      Y       0.7325      Z      -0.3497
       Tot       1.1758
    Quadrupole Moments (Debye-Ang)
        XX     -95.0687     XY       2.6444     YY     -92.8016
        XZ       2.8410     YZ      -1.7373     ZZ    -100.3648

 Total job time:  65.16s(wall), 64.20s(cpu)
        *  Thank you very much for using Q-Chem.  Have a nice day.  *
