 Q-Chem 5.4, Q-Chem, Inc., Pleasanton, CA (2021)
 Q-Chem 5.4.2 for Intel X86 EM64T Linux

User input:
--------------------------------------------------------------
$molecule
0 1
C           -2.28493602240000        3.66307647850000        0.04693839170000
C           -2.67667298570000        2.39955578430000       -0.06066099490000
C           -1.82464222850000        1.21528616620000       -0.03662546360000
C           -2.42588251320000       -0.04445595980000       -0.01510495020000
C           -1.67124414820000       -1.20643233640000        0.01253450220000
C           -2.32777564980000       -2.55286910910000        0.05397048940000
C           -0.28623116260000       -1.11342757410000        0.01442694370000
C            0.34503224430000        0.12963306990000       -0.01265116710000
C            1.79192516130000        0.28931167580000       -0.01768042040000
C            2.72810264500000       -0.64701172050000        0.00160617600000
F            2.57244636270000       -1.96587935390000        0.02938208640000
F            4.03260007870000       -0.37058003090000       -0.00477026010000
C           -0.43543598950000        1.28398694320000       -0.03809312050000
H           -2.99462468650000        4.47209118590000        0.02166504020000
H           -1.25402740650000        3.94770418990000        0.16914841920000
H           -3.73360377960000        2.18760920140000       -0.16808238520000
H           -3.50495785190000       -0.11258074510000       -0.01709104950000
H           -3.38740246240000       -2.47870956970000       -0.17662460250000
H           -2.22211164450000       -2.98829812640000        1.04755265050000
H           -1.85830245590000       -3.22994282190000       -0.65680100350000
H            0.29452123000000       -2.02118209540000        0.03432960480000
H            2.16359370730000        1.30387357230000       -0.03928402050000
H            0.05437030050000        2.24473114570000       -0.06692617650000
$end

$rem
BASIS = 6-31G*
GUI = 2
METHOD = B3LYP
PRINT_ORBITALS false
MOLDEN_FORMAT false
$end
--------------------------------------------------------------

             Standard Nuclear Orientation (Angstroms)
    I     Atom           X                Y                Z
 ----------------------------------------------------------------
    1      C       3.5001043595    -2.3723800481     0.0741164924
    2      C       3.3192973269    -1.0629257876    -0.0448724897
    3      C       2.0454092440    -0.3515838975    -0.0296898012
    4      C       2.0556434428     1.0443751224    -0.0198453934
    5      C       0.8794022535     1.7768600381    -0.0010142022
    6      C       0.9029000411     3.2749432028     0.0279205906
    7      C      -0.3354673771     1.1053069664     0.0037491840
    8      C      -0.3799528095    -0.2883240071    -0.0117502920
    9      C      -1.6225726303    -1.0465557721    -0.0132453611
   10      C      -2.8675093968    -0.5954755081    -0.0005647007
   11      F      -3.2858957256     0.6651198485     0.0156969297
   12      F      -3.9316576346    -1.3990630820    -0.0026217324
   13      C       0.8164431670    -1.0029339282    -0.0284879691
   14      H       4.4859526643    -2.8042685221     0.0546998750
   15      H       2.6869094467    -3.0662908913     0.2003011776
   16      H       4.1868468267    -0.4236750230    -0.1556864671
   17      H       3.0039985802     1.5636568670    -0.0240311659
   18      H       1.8944992378     3.6552101375    -0.2036194862
   19      H       0.6203008973     3.6327815276     1.0178995192
   20      H       0.1922201634     3.6830469418    -0.6879114129
   21      H      -1.2464076905     1.6812464208     0.0167575921
   22      H      -1.5288733331    -2.1231278912    -0.0256138560
   23      H       0.7803477223    -2.0809287506    -0.0483688973
 ----------------------------------------------------------------

    9    -624.8333775536      5.71e-06  Convergence criterion met
 Total energy in the final basis set =     -624.8333775536

                    Orbital Energies (a.u.)
 --------------------------------------------------------------

 Alpha MOs
 -- Occupied --
-24.7436 -24.7328 -10.3556 -10.2046 -10.2017 -10.1946 -10.1942 -10.1904
-10.1857 -10.1831 -10.1822 -10.1812 -10.1803  -1.2841  -1.2230  -0.8713
 -0.8139  -0.7967  -0.7545  -0.7274  -0.6895  -0.6448  -0.6243  -0.5991
 -0.5708  -0.5526  -0.5178  -0.5158  -0.5021  -0.4845  -0.4476  -0.4405
 -0.4398  -0.4328  -0.4247  -0.4204  -0.4129  -0.4059  -0.3827  -0.3741
 -0.3670  -0.3427  -0.3394  -0.3167  -0.2762  -0.2271  -0.2176

          Ground-State Mulliken Net Atomic Charges

     Atom                 Charge (a.u.)
  ----------------------------------------
      1 C                    -0.352324
      2 C                    -0.113280
      3 C                     0.185745
      4 C                    -0.256969
      5 C                     0.183716
      6 C                    -0.529475
      7 C                    -0.249904
      8 C                     0.203250
      9 C                    -0.295492
     10 C                     0.541707
     11 F                    -0.234725
     12 F                    -0.250023
     13 C                    -0.264079
     14 H                     0.144360
     15 H                     0.142416
     16 H                     0.126931
     17 H                     0.119434
     18 H                     0.155711
     19 H                     0.167807
     20 H                     0.162670
     21 H                     0.130429
     22 H                     0.158700
     23 H                     0.123397
  ----------------------------------------
  Sum of atomic charges =     0.000000

                    Cartesian Multipole Moments
 -----------------------------------------------------------------
    Charge (ESU x 10^10)
                 0.0000
    Dipole Moment (Debye)
         X       1.0056      Y       0.2439      Z       0.0268
       Tot       1.0351
    Quadrupole Moments (Debye-Ang)
        XX     -74.0454     XY       0.2694     YY     -67.0866
        XZ      -0.1484     YZ      -0.0795     ZZ     -77.0128

 Total job time:  43.16s(wall), 41.69s(cpu)
        *  Thank you very much for using Q-Chem.  Have a nice day.  *
