 Q-Chem 5.4, Q-Chem, Inc., Pleasanton, CA (2021)
 Q-Chem 5.4.2 for Intel X86 EM64T Linux

User input:
--------------------------------------------------------------
$molecule
0 1
C           -2.28585234220000        3.65991724200000        0.10186518820000
C           -2.67565842120000        2.40065439270000       -0.05184875070000
C           -1.82445994350000        1.21556621440000       -0.03476999970000
C           -2.42591014390000       -0.04412119150000       -0.02384169300000
C           -1.67127299600000       -1.20627272580000       -0.00202975030000
C           -2.32811405880000       -2.55282333050000        0.02963376710000
C           -0.28628587930000       -1.11327207070000        0.00318420450000
C            0.34510791800000        0.12989806380000       -0.01495902980000
C            1.79198156190000        0.28947581670000       -0.01773621890000
C            2.72810892750000       -0.64686838900000       -0.00030441540000
F            2.57243663050000       -1.96577016540000        0.02303635430000
F            4.03260005100000       -0.37043732010000       -0.00429155140000
C           -0.43531514570000        1.28441624570000       -0.03386421300000
H           -2.99342965580000        4.47083815360000        0.07905708540000
H           -1.25847108660000        3.93839769450000        0.26236347840000
H           -3.72944421050000        2.19278650630000       -0.19284447480000
H           -3.50497986240000       -0.11209735960000       -0.02858642380000
H           -3.38547905420000       -2.47803078500000       -0.21093260230000
H           -2.23225466010000       -2.99051352610000        1.02324301810000
H           -1.85180341500000       -3.22828792370000       -0.67805029440000
H            0.29448008990000       -2.02110909720000        0.01801347190000
H            2.16377989960000        1.30405144590000       -0.03559512610000
H            0.05416685680000        2.24550354270000       -0.05766123960000
$end

$rem
BASIS = 6-31G*
GUI = 2
METHOD = B3LYP
PRINT_ORBITALS false
MOLDEN_FORMAT false
$end
--------------------------------------------------------------

             Standard Nuclear Orientation (Angstroms)
    I     Atom           X                Y                Z
 ----------------------------------------------------------------
    1      C       3.4992001474    -2.3706858576     0.0952489178
    2      C       3.3184324469    -1.0646675965    -0.0562734173
    3      C       2.0451833223    -0.3521070363    -0.0373356998
    4      C       2.0560213579     1.0437380827    -0.0241799825
    5      C       0.8799552741     1.7764443673    -0.0005316919
    6      C       0.9041571575     3.2744084438     0.0335151241
    7      C      -0.3350497344     1.1051730644     0.0042940423
    8      C      -0.3800135729    -0.2883919718    -0.0160537003
    9      C      -1.6228568593    -1.0461820924    -0.0193418466
   10      C      -2.8675980230    -0.5949142686    -0.0004852677
   11      F      -3.2856061648     0.6655993986     0.0251084729
   12      F      -3.9319531979    -1.3981909095    -0.0051569048
   13      C       0.8161738588    -1.0032597404    -0.0367780422
   14      H       4.4837724369    -2.8052168103     0.0711896809
   15      H       2.6867935907    -3.0586283285     0.2551052640
   16      H       4.1846946789    -0.4295206444    -0.1967420503
   17      H       3.0045542829     1.5626795230    -0.0286298110
   18      H       1.8934110544     3.6552177182    -0.2070006973
   19      H       0.6323794988     3.6286175407     1.0278460022
   20      H       0.1860513766     3.6854442299    -0.6731068731
   21      H      -1.2458475513     1.6812458583     0.0205592691
   22      H      -1.5295869031    -2.1226726262    -0.0389759404
   23      H       0.7801795485    -2.0811752303    -0.0622795730
 ----------------------------------------------------------------

    9    -624.8333629815      5.70e-06  Convergence criterion met
 Total energy in the final basis set =     -624.8333629815

                    Orbital Energies (a.u.)
 --------------------------------------------------------------

 Alpha MOs
 -- Occupied --
-24.7436 -24.7327 -10.3555 -10.2045 -10.2017 -10.1946 -10.1942 -10.1904
-10.1856 -10.1831 -10.1821 -10.1811 -10.1803  -1.2842  -1.2230  -0.8713
 -0.8139  -0.7967  -0.7545  -0.7274  -0.6895  -0.6448  -0.6243  -0.5991
 -0.5708  -0.5526  -0.5178  -0.5158  -0.5020  -0.4845  -0.4476  -0.4405
 -0.4398  -0.4328  -0.4246  -0.4205  -0.4129  -0.4059  -0.3827  -0.3740
 -0.3671  -0.3428  -0.3393  -0.3164  -0.2762  -0.2272  -0.2177

          Ground-State Mulliken Net Atomic Charges

     Atom                 Charge (a.u.)
  ----------------------------------------
      1 C                    -0.351837
      2 C                    -0.113674
      3 C                     0.185091
      4 C                    -0.256475
      5 C                     0.183628
      6 C                    -0.529444
      7 C                    -0.249924
      8 C                     0.203172
      9 C                    -0.295529
     10 C                     0.541712
     11 F                    -0.234704
     12 F                    -0.250026
     13 C                    -0.263992
     14 H                     0.144323
     15 H                     0.142414
     16 H                     0.127133
     17 H                     0.119367
     18 H                     0.155737
     19 H                     0.167880
     20 H                     0.162550
     21 H                     0.130404
     22 H                     0.158690
     23 H                     0.123504
  ----------------------------------------
  Sum of atomic charges =     0.000000

                    Cartesian Multipole Moments
 -----------------------------------------------------------------
    Charge (ESU x 10^10)
                 0.0000
    Dipole Moment (Debye)
         X       1.0092      Y       0.2430      Z       0.0241
       Tot       1.0384
    Quadrupole Moments (Debye-Ang)
        XX     -74.0392     XY       0.2633     YY     -67.1043
        XZ      -0.1875     YZ      -0.1161     ZZ     -76.9895

 Total job time:  37.29s(wall), 36.93s(cpu)
        *  Thank you very much for using Q-Chem.  Have a nice day.  *
