 Q-Chem 5.2, Q-Chem, Inc., Pleasanton, CA (2019)
 Q-Chem 5.2.1 for Intel X86 EM64T Linux

User input:
--------------------------------------------------------------
$molecule
0 1
C         3.47100117260000    1.60940499960000   -0.33330608540000
C         2.93288592390000    0.46630675820000    0.07427152690000
C         1.50919182640000    0.15590106010000    0.06388749070000
C         0.54075243460000    1.16120612810000    0.11762075610000
C        -0.81367868720000    0.87227671920000    0.10841126070000
C        -1.82491504890000    1.91686266390000    0.20436169530000
C        -1.68428026670000    3.15484608060000   -0.25296095500000
C        -1.15659707930000   -0.49921323900000    0.03434757280000
N        -2.44864958080000   -0.92036840970000   -0.07565028350000
N        -2.77845975640000   -2.28200866450000    0.07629185880000
N        -0.24047231770000   -1.46456244910000    0.01156799890000
C         1.04952830240000   -1.16787493190000    0.02816471900000
C         1.97611974860000   -2.34479794260000   -0.00754937950000
H         4.53400399730000    1.77559486380000   -0.29513757180000
H         2.88036968130000    2.41672726020000   -0.73240634360000
H         3.58256793820000   -0.31969613350000    0.43540356790000
H         0.85387201560000    2.18965422400000    0.21485343350000
H        -2.75151773690000    1.64185947870000    0.69545065180000
H        -0.79775412600000    3.47471896720000   -0.77352812260000
H        -2.46031386680000    3.89146563900000   -0.13609649520000
H        -3.19082256360000   -0.29420070670000    0.20052905980000
H        -2.06399548460000   -2.72065377650000    0.65943198590000
H        -2.72056035250000   -2.73305596770000   -0.83745203420000
H         1.39075645100000   -3.25607527760000   -0.09274111730000
H         2.57057562390000   -2.39256856510000    0.90420942320000
H         2.65409231700000   -2.27400002540000   -0.85607809710000
$end

$rem
BASIS = 6-31G*
GUI = 2
METHOD = B3LYP
PRINT_ORBITALS false
MOLDEN_FORMAT false
--------------------------------------------------------------

             Standard Nuclear Orientation (Angstroms)
    I     Atom           X                Y                Z
 ----------------------------------------------------------------
    1      C       3.6451492011    -1.1067212049     0.2219139141
    2      C       2.9426615998    -0.0409505304    -0.1427848106
    3      C       1.4900095886     0.0646804466    -0.0979669567
    4      C       0.6718608028    -1.0656976586    -0.1633756923
    5      C      -0.7092362175    -0.9714969741    -0.1215913263
    6      C      -1.5651331873    -2.1456980054    -0.2295615826
    7      C      -1.2416226266    -3.3628601079     0.1892252627
    8      C      -1.2401883109     0.3353345450    -0.0018231586
    9      N      -2.5759685011     0.5665791983     0.1433941498
   10      N      -3.0974838700     1.8714078925     0.0367679400
   11      N      -0.4688677332     1.4195825549     0.0324318397
   12      C       0.8493879736     1.3087878308    -0.0158066758
   13      C       1.6015542442     2.6035544865     0.0372987539
   14      H       4.7198757730    -1.1199041164     0.1599468404
   15      H       3.1829379747    -1.9995632942     0.6080351294
   16      H       3.4671504461     0.8381523929    -0.4926320871
   17      H       1.1245026245    -2.0366596671    -0.2958585624
   18      H      -2.5317088977    -1.9917517748    -0.6958443409
   19      H      -0.3077530671    -3.5676443249     0.6843903947
   20      H      -1.9085440978    -4.1984960238     0.0650391455
   21      H      -3.2284015152    -0.1508121378    -0.1374306913
   22      H      -2.4647931403     2.4217072104    -0.5461507843
   23      H      -3.0837853591     2.3021368444     0.9619753943
   24      H       0.8956860754     3.4203873417     0.1592348790
   25      H       2.1633475416     2.7586391514    -0.8831907746
   26      H       2.3010679666     2.6072239131     0.8711615848
 ----------------------------------------------------------------

    9    -553.0761440357      2.61e-06  Convergence criterion met
 Total energy in the final basis set =     -553.0761440357

                    Orbital Energies (a.u.)
 --------------------------------------------------------------

 Alpha MOs
 -- Occupied --
-14.3729 -14.3465 -14.3131 -10.2536 -10.2223 -10.1966 -10.1942 -10.1930
-10.1865 -10.1834 -10.1824 -10.1757 -10.1743  -1.0006  -0.9309  -0.8301
 -0.8191  -0.7823  -0.7511  -0.7394  -0.6861  -0.6352  -0.6267  -0.5734
 -0.5563  -0.5304  -0.5224  -0.4956  -0.4800  -0.4725  -0.4490  -0.4364
 -0.4278  -0.4144  -0.4076  -0.3950  -0.3879  -0.3732  -0.3681  -0.3416
 -0.3237  -0.3055  -0.2837  -0.2602  -0.2490  -0.2422  -0.1903

          Ground-State Mulliken Net Atomic Charges

     Atom                 Charge (a.u.)
  ----------------------------------------
      1 C                    -0.348022
      2 C                    -0.129470
      3 C                     0.115360
      4 C                    -0.227818
      5 C                     0.140362
      6 C                    -0.136881
      7 C                    -0.339842
      8 C                     0.450575
      9 N                    -0.530583
     10 N                    -0.567379
     11 N                    -0.587305
     12 C                     0.254155
     13 C                    -0.522435
     14 H                     0.139577
     15 H                     0.136893
     16 H                     0.127990
     17 H                     0.138687
     18 H                     0.121317
     19 H                     0.144206
     20 H                     0.143504
     21 H                     0.334812
     22 H                     0.323720
     23 H                     0.320995
     24 H                     0.169260
     25 H                     0.162249
     26 H                     0.166075
  ----------------------------------------
  Sum of atomic charges =     0.000000

                    Cartesian Multipole Moments
 -----------------------------------------------------------------
    Charge (ESU x 10^10)
                 0.0000
    Dipole Moment (Debye)
         X       0.2662      Y      -0.4242      Z      -0.0419
       Tot       0.5025
    Quadrupole Moments (Debye-Ang)
        XX     -74.8813     XY       3.6498     YY     -70.7457
        XZ      -0.3395     YZ       0.1727     ZZ     -78.8221

 Total job time:  36.27s(wall), 36.15s(cpu)
        *  Thank you very much for using Q-Chem.  Have a nice day.  *
