 Q-Chem 5.4, Q-Chem, Inc., Pleasanton, CA (2021)
 Q-Chem 5.4.2 for Intel X86 EM64T Linux

User input:
--------------------------------------------------------------
$molecule
0 1
C           -4.60662312050000        0.14255125580000       -0.74183895170000
C           -3.82849861680000       -0.56490043190000        0.06861064230000
C           -2.38908042950000       -0.41684377260000        0.24141907930000
C           -1.69521192490000       -1.36300218800000        0.99898043750000
C           -0.33396572030000       -1.25728190250000        1.17271041610000
C            0.39161677750000       -0.21748629390000        0.58887487840000
C            1.83859011770000       -0.20773948610000        0.81462311370000
C            2.78172013300000       -0.01109777920000       -0.08943102930000
F            2.62165480090000        0.21231215410000       -1.38835356260000
F            4.08639210890000       -0.04238831250000        0.18621815700000
C           -0.29153200240000        0.76416519940000       -0.13973743990000
C            0.40122100080000        1.96052019040000       -0.71647547700000
C           -1.66371509140000        0.64189685360000       -0.29933263980000
H           -5.66462856250000       -0.04528894650000       -0.80611349840000
H           -4.22909538580000        0.92605229390000       -1.37614373550000
H           -4.27273256600000       -1.35175011850000        0.66640913680000
H           -2.23196959610000       -2.18480086080000        1.45046122900000
H            0.19247757290000       -1.99892564810000        1.75614216400000
H            2.18152476400000       -0.44851455980000        1.81090767120000
H            1.24841525960000        2.25971296370000       -0.10293567150000
H           -0.29047578810000        2.79664963710000       -0.78927847660000
H            0.76982642550000        1.74176911120000       -1.71807147310000
H           -2.18202216960000        1.40873790570000       -0.85473630990000
$end

$rem
BASIS = 6-31G*
GUI = 2
METHOD = B3LYP
PRINT_ORBITALS false
MOLDEN_FORMAT false
$end
--------------------------------------------------------------

             Standard Nuclear Orientation (Angstroms)
    I     Atom           X                Y                Z
 ----------------------------------------------------------------
    1      C       4.4702161563    -0.8187555707    -0.3594698868
    2      C       3.7463932711     0.2832579231    -0.2031341314
    3      C       2.3024899980     0.3573695769    -0.0204895339
    4      C       1.6770464450     1.6056922607    -0.0533422260
    5      C       0.3138044231     1.7087926776     0.1056911275
    6      C      -0.4813304429     0.5761030383     0.2881288700
    7      C      -1.9235949941     0.7909659488     0.4241288970
    8      C      -2.8867957011     0.1190000308    -0.1810010752
    9      F      -2.7549133595    -0.8841200939    -1.0407043494
   10      F      -4.1839523374     0.3893069852    -0.0278692772
   11      C       0.1315163284    -0.6807346540     0.3654959834
   12      C      -0.6405244166    -1.9316821719     0.6533885796
   13      C       1.5068553965    -0.7627111155     0.2072906941
   14      H       5.5371111724    -0.7724967038    -0.4950641940
   15      H       4.0378533509    -1.8045269963    -0.3672626370
   16      H       4.2451452895     1.2448527591    -0.2236540387
   17      H       2.2687409677     2.4966323837    -0.2063783339
   18      H      -0.1591505262     2.6797606385     0.0724431862
   19      H      -2.2401519476     1.6261010730     1.0328166221
   20      H      -1.4980598463    -1.7280753244     1.2912465255
   21      H      -0.0030416985    -2.6616916966     1.1469056047
   22      H      -1.0055372182    -2.3760605307    -0.2719276162
   23      H       1.9704229461    -1.7349652884     0.2779137311
 ----------------------------------------------------------------

    9    -624.8287610446      6.26e-06  Convergence criterion met
 Total energy in the final basis set =     -624.8287610446

                    Orbital Energies (a.u.)
 --------------------------------------------------------------

 Alpha MOs
 -- Occupied --
-24.7408 -24.7328 -10.3554 -10.2014 -10.2009 -10.1968 -10.1937 -10.1898
-10.1878 -10.1854 -10.1832 -10.1796 -10.1775  -1.2828  -1.2222  -0.8719
 -0.8169  -0.7806  -0.7700  -0.7230  -0.6895  -0.6458  -0.6172  -0.5937
 -0.5727  -0.5549  -0.5287  -0.5175  -0.4961  -0.4670  -0.4572  -0.4427
 -0.4399  -0.4351  -0.4283  -0.4128  -0.4101  -0.4078  -0.3836  -0.3725
 -0.3655  -0.3432  -0.3379  -0.3067  -0.2643  -0.2460  -0.2140

          Ground-State Mulliken Net Atomic Charges

     Atom                 Charge (a.u.)
  ----------------------------------------
      1 C                    -0.350580
      2 C                    -0.117471
      3 C                     0.192077
      4 C                    -0.202479
      5 C                    -0.175542
      6 C                     0.116377
      7 C                    -0.345166
      8 C                     0.567028
      9 F                    -0.234099
     10 F                    -0.249093
     11 C                     0.145300
     12 C                    -0.536786
     13 C                    -0.254361
     14 H                     0.144065
     15 H                     0.143348
     16 H                     0.126880
     17 H                     0.127109
     18 H                     0.127934
     19 H                     0.168698
     20 H                     0.157041
     21 H                     0.154843
     22 H                     0.173794
     23 H                     0.121081
  ----------------------------------------
  Sum of atomic charges =     0.000000

                    Cartesian Multipole Moments
 -----------------------------------------------------------------
    Charge (ESU x 10^10)
                 0.0000
    Dipole Moment (Debye)
         X       0.6788      Y       0.3406      Z       0.4589
       Tot       0.8873
    Quadrupole Moments (Debye-Ang)
        XX     -74.0358     XY      -0.8185     YY     -67.6442
        XZ      -2.0020     YZ      -0.1748     ZZ     -76.7884

 Total job time:  51.45s(wall), 47.25s(cpu)
        *  Thank you very much for using Q-Chem.  Have a nice day.  *
