 Q-Chem 5.4, Q-Chem, Inc., Pleasanton, CA (2021)
 Q-Chem 5.4.2 for Intel X86 EM64T Linux

User input:
--------------------------------------------------------------
$molecule
0 1
C           -3.62521874990000       -2.20997703100000       -0.01036609990000
C           -3.47269343490000       -0.89199900840000        0.00294815750000
C           -2.20961358360000       -0.16085189280000        0.00162635040000
C           -0.95712998080000       -0.77434484870000       -0.00318169400000
C            0.19770638200000        0.00636255020000       -0.00371701810000
C            1.48789199750000       -0.66793697850000       -0.00813886880000
C            2.69451146590000       -0.12133415250000       -0.00041272310000
F            3.00658751230000        1.16627401930000        0.01303849520000
F            3.81514471970000       -0.83691780030000       -0.00502037400000
C            0.04159760430000        1.39472459520000       -0.00011604360000
C           -1.24548060170000        1.90826609420000        0.00465695690000
N           -2.33481110370000        1.16767803360000        0.00590161600000
H           -4.60404976150000       -2.65772281030000       -0.00838428860000
H           -2.79590133540000       -2.89705908900000       -0.02389848700000
H           -4.33668018710000       -0.24188381460000        0.01505388980000
H           -0.87605559280000       -1.84973607170000       -0.00561152640000
H            1.46853656430000       -1.74825218590000       -0.01800702000000
H            0.88749085480000        2.06038239870000       -0.00108004410000
H           -1.41104509440000        2.97790582550000        0.00779895630000
$end

$rem
BASIS = 6-31G*
GUI = 2
METHOD = B3LYP
PRINT_ORBITALS false
MOLDEN_FORMAT false
$end
--------------------------------------------------------------

             Standard Nuclear Orientation (Angstroms)
    I     Atom           X                Y                Z
 ----------------------------------------------------------------
    1      C       3.7619005234    -1.7309138408     0.0011816721
    2      C       3.4474917712    -0.4418842085    -0.0063716479
    3      C       2.1036633066     0.1273741868    -0.0020705147
    4      C       0.9366997003    -0.6363694181    -0.0001871617
    5      C      -0.3058483072    -0.0045373802     0.0035650574
    6      C      -1.5027019088    -0.8332823892     0.0047882206
    7      C      -2.7676765533    -0.4401243235    -0.0007586965
    8      F      -3.2366532947     0.7990311731    -0.0086116734
    9      F      -3.7911728599    -1.2888609156     0.0005000808
   10      C      -0.3226977555     1.3924743600     0.0060907581
   11      C       0.8909599544     2.0613149400     0.0038097961
   12      N       2.0635417957     1.4611928480    -0.0004875712
   13      H       4.7886032175    -2.0541130605    -0.0025869149
   14      H       3.0239594001    -2.5153676501     0.0115437940
   15      H       4.2244096811     0.3101698641    -0.0154631265
   16      H       0.9892883093    -1.7135297369    -0.0024955797
   17      H      -1.3498431321    -1.9029369467     0.0099148696
   18      H      -1.2444427143     1.9483600791     0.0098230761
   19      H       0.9229236746     3.1432236385     0.0053963117
 ----------------------------------------------------------------

    9    -601.5543808745      7.22e-06  Convergence criterion met
 Total energy in the final basis set =     -601.5543808745

                    Orbital Energies (a.u.)
 --------------------------------------------------------------

 Alpha MOs
 -- Occupied --
-24.7569 -24.7466 -14.3223 -10.3718 -10.2278 -10.2251 -10.2194 -10.2147
-10.1989 -10.1957 -10.1894 -10.1866  -1.2990  -1.2374  -0.9498  -0.8458
 -0.8021  -0.7768  -0.7413  -0.6640  -0.6526  -0.6216  -0.5860  -0.5813
 -0.5319  -0.5288  -0.5092  -0.4931  -0.4647  -0.4557  -0.4529  -0.4426
 -0.4336  -0.4182  -0.4113  -0.4101  -0.3726  -0.3557  -0.3360  -0.3016
 -0.2531  -0.2463  -0.2365

          Ground-State Mulliken Net Atomic Charges

     Atom                 Charge (a.u.)
  ----------------------------------------
      1 C                    -0.347403
      2 C                    -0.088014
      3 C                     0.296845
      4 C                    -0.237304
      5 C                     0.214882
      6 C                    -0.292807
      7 C                     0.554190
      8 F                    -0.228226
      9 F                    -0.241620
     10 C                    -0.209048
     11 C                     0.042463
     12 N                    -0.484023
     13 H                     0.150613
     14 H                     0.141880
     15 H                     0.147036
     16 H                     0.131852
     17 H                     0.164973
     18 H                     0.143864
     19 H                     0.139847
  ----------------------------------------
  Sum of atomic charges =     0.000000

                    Cartesian Multipole Moments
 -----------------------------------------------------------------
    Charge (ESU x 10^10)
                 0.0000
    Dipole Moment (Debye)
         X      -0.8538      Y      -1.4362      Z       0.0062
       Tot       1.6708
    Quadrupole Moments (Debye-Ang)
        XX     -69.6034     XY      -5.1606     YY     -62.4839
        XZ      -0.0311     YZ      -0.0046     ZZ     -69.1764

 Total job time:  42.95s(wall), 36.98s(cpu)
        *  Thank you very much for using Q-Chem.  Have a nice day.  *
