 Q-Chem 5.2, Q-Chem, Inc., Pleasanton, CA (2019)
 Q-Chem 5.2.1 for Intel X86 EM64T Linux

User input:
--------------------------------------------------------------
$molecule
0 1
C         0.95789436010000   -3.85772785100000    0.17606813750000
C         1.50005759620000   -2.66366543810000   -0.02949646620000
C         0.79125445480000   -1.39045702610000   -0.02431994860000
C        -0.59194209700000   -1.27751827900000    0.04515209170000
C        -1.23319327800000   -0.04608786900000    0.03152253340000
C        -2.72155036370000   -0.07222582450000    0.03968773570000
O        -3.36511793120000   -0.90734154550000    0.61234481090000
O        -3.33709125170000    0.89464714240000   -0.67654593490000
C        -0.48467622650000    1.14355489520000    0.01139050720000
N        -1.10110413780000    2.38285778430000    0.06808494880000
C         0.91828060460000    1.06555723120000   -0.08660229300000
C         1.72336806730000    2.29007634900000   -0.19100677970000
C         2.86113429210000    2.50496730260000    0.45212878730000
C         1.50773292480000   -0.19148727710000   -0.10968743500000
F         2.84955392730000   -0.26211712410000   -0.23321394400000
H         1.55930546470000   -4.74983364000000    0.15749709400000
H        -0.09046452050000   -3.99711523960000    0.37546560870000
H         2.56436064710000   -2.58872567320000   -0.20942427110000
H        -1.21085472810000   -2.15855881360000    0.09250885650000
H        -2.70782778900000    1.44654359450000   -1.16288496460000
H        -1.98057805740000    2.41746009780000    0.56261158160000
H        -0.48656724000000    3.14473094550000    0.31158373860000
H         1.33031119930000    3.04532947070000   -0.86202310650000
H         3.27993551040000    1.78352400210000    1.13226158220000
H         3.41691033610000    3.41728149690000    0.31945929810000
$end

$rem
BASIS = 6-31G*
GUI = 2
METHOD = B3LYP
PRINT_ORBITALS false
MOLDEN_FORMAT false
--------------------------------------------------------------

             Standard Nuclear Orientation (Angstroms)
    I     Atom           X                Y                Z
 ----------------------------------------------------------------
    1      C      -1.0979640952    -3.8296036942    -0.0768197230
    2      C      -1.5908450398    -2.6108280780     0.1065847441
    3      C      -0.8326731289    -1.3670123885     0.0667571919
    4      C       0.5531697465    -1.3103162443    -0.0171433314
    5      C       1.2423827918    -0.1051546356    -0.0366515779
    6      C       2.7284209422    -0.1901909099    -0.0570507318
    7      O       3.3332344555    -1.0624889119    -0.6163631819
    8      O       3.3882245679     0.7672009061     0.6319954757
    9      C       0.5413829606     1.1132591728    -0.0367493433
   10      N       1.2054346786     2.3257133434    -0.1265239527
   11      C      -0.8625612939     1.0928775853     0.0750505478
   12      C      -1.6179159758     2.3502242757     0.1589063407
   13      C      -2.7524191307     2.5956124785    -0.4790597110
   14      C      -1.5006751166    -0.1391063300     0.1313909345
   15      F      -2.8430017853    -0.1539772688     0.2680252861
   16      H      -1.7337393135    -4.6966497615    -0.0330712588
   17      H      -0.0578270721    -4.0146263511    -0.2820662281
   18      H      -2.6496287469    -2.4899873926     0.2939495160
   19      H       1.1365308068    -2.2159287289    -0.0500649495
   20      H       2.7857627205     1.3541002321     1.1112415029
   21      H       2.0808557332     2.3146565127    -0.6292604737
   22      H       0.6190057237     3.1056901953    -0.3817398702
   23      H      -1.1891538296     3.1039963885     0.8094096183
   24      H      -3.2056634873     1.8764305782    -1.1392130738
   25      H      -3.2706573662     3.5318569982    -0.3620950832
 ----------------------------------------------------------------

    9    -730.1929742926      7.07e-06  Convergence criterion met
 Total energy in the final basis set =     -730.1929742926

                    Orbital Energies (a.u.)
 --------------------------------------------------------------

 Alpha MOs
 -- Occupied --
-24.7201 -19.1939 -19.1309 -14.3731 -10.3185 -10.2853 -10.2593 -10.2128
-10.2091 -10.2083 -10.2065 -10.2045 -10.1975 -10.1933 -10.1809  -1.2321
 -1.1033  -1.0202  -0.9565  -0.8725  -0.8186  -0.7932  -0.7552  -0.7301
 -0.6612  -0.6477  -0.6282  -0.6053  -0.5641  -0.5600  -0.5567  -0.5335
 -0.4958  -0.4871  -0.4857  -0.4685  -0.4509  -0.4496  -0.4420  -0.4360
 -0.4240  -0.4099  -0.4018  -0.3931  -0.3793  -0.3586  -0.3504  -0.3443
 -0.3181  -0.3075  -0.2846  -0.2699  -0.2464  -0.2139

          Ground-State Mulliken Net Atomic Charges

     Atom                 Charge (a.u.)
  ----------------------------------------
      1 C                    -0.352972
      2 C                    -0.111362
      3 C                     0.114017
      4 C                    -0.251585
      5 C                     0.046178
      6 C                     0.513301
      7 O                    -0.440520
      8 O                    -0.582095
      9 C                     0.197748
     10 N                    -0.840247
     11 C                     0.058890
     12 C                    -0.163847
     13 C                    -0.313740
     14 C                     0.231530
     15 F                    -0.279885
     16 H                     0.146968
     17 H                     0.149315
     18 H                     0.142208
     19 H                     0.168084
     20 H                     0.424468
     21 H                     0.347524
     22 H                     0.340505
     23 H                     0.145910
     24 H                     0.160507
     25 H                     0.149100
  ----------------------------------------
  Sum of atomic charges =     0.000000

                    Cartesian Multipole Moments
 -----------------------------------------------------------------
    Charge (ESU x 10^10)
                 0.0000
    Dipole Moment (Debye)
         X      -2.5571      Y       3.6156      Z       0.2466
       Tot       4.4353
    Quadrupole Moments (Debye-Ang)
        XX     -99.4261     XY       6.0085     YY     -72.0946
        XZ       3.1531     YZ      -2.6140     ZZ     -86.0562

 Total job time:  42.62s(wall), 42.49s(cpu)
        *  Thank you very much for using Q-Chem.  Have a nice day.  *
