 Q-Chem 5.2, Q-Chem, Inc., Pleasanton, CA (2019)
 Q-Chem 5.2.1 for Intel X86 EM64T Linux

User input:
--------------------------------------------------------------
$molecule
0 1
C        -3.49585166220000    1.48810686030000   -0.11805551910000
C        -2.94844637220000    0.28521969620000    0.01343508690000
C        -1.52684812380000   -0.02645131990000    0.01495606900000
C        -0.52382354060000    0.94441372450000    0.01626948310000
C         0.82612484390000    0.62708285810000    0.01275393410000
O         1.80300677040000    1.57432437090000    0.02250071450000
C         1.44452704570000    2.93380603050000    0.07170478520000
C         1.23220109850000   -0.72813213890000    0.00613065100000
C         2.60962989930000   -1.19610082090000   -0.00517513200000
C         3.72677722170000   -0.48366784370000   -0.10846199540000
C         0.22998677270000   -1.69768673920000    0.01612645140000
C        -1.10248512380000   -1.35443901560000    0.02114129530000
F        -2.01996494490000   -2.35099568480000    0.02752513840000
H        -4.56433767230000    1.61549362960000   -0.11024166310000
H        -2.91708305860000    2.38725474200000   -0.24405783460000
H        -3.59428314220000   -0.57645727920000    0.12064634950000
H        -0.82857876090000    1.97692444190000    0.02573351980000
H         2.38557665950000    3.48201402430000    0.09433235740000
H         0.87102773030000    3.16868839210000    0.97405211140000
H         0.87587385970000    3.23498359480000   -0.81402725270000
H         2.69329667430000   -2.27422849000000    0.07188489400000
H         3.72868659540000    0.58569384870000   -0.19718133150000
H         4.68741283220000   -0.97189367990000   -0.10928486780000
H         0.49451569920000   -2.74417724550000    0.01731138200000
$end

$rem
BASIS = 6-31G*
GUI = 2
METHOD = B3LYP
PRINT_ORBITALS false
MOLDEN_FORMAT false
--------------------------------------------------------------

             Standard Nuclear Orientation (Angstroms)
    I     Atom           X                Y                Z
 ----------------------------------------------------------------
    1      C       3.4052810606    -1.6937927211    -0.1155504230
    2      C       2.9531591277    -0.4518582538     0.0150803434
    3      C       1.5601356459    -0.0304711606     0.0161814367
    4      C       0.4845797403    -0.9203111924     0.0179662795
    5      C      -0.8365701899    -0.4988621312     0.0140382294
    6      O      -1.8842247181    -1.3671798083     0.0242452331
    7      C      -1.6326634938    -2.7504088188     0.0743809615
    8      C      -1.1359200495     0.8838460794     0.0064786991
    9      C      -2.4727401580     1.4576098837    -0.0053409318
   10      C      -3.6419446641     0.8342328160    -0.1083405314
   11      C      -0.0612751201     1.7724501207     0.0160037884
   12      C       1.2404337599     1.3265242447     0.0214451499
   13      F       2.2327035846     2.2486420027     0.0273278236
   14      H       4.4606079798    -1.9039615112    -0.1074898744
   15      H       2.7582896088    -2.5452417536    -0.2410621738
   16      H       3.6641003452     0.3570005182     0.1218355327
   17      H       0.7080358731    -1.9734054364     0.0281429104
   18      H      -2.6135339398    -3.2236847105     0.0972170168
   19      H      -1.0792815154    -3.0286302841     0.9769678481
   20      H      -1.0890887048    -3.0955177869    -0.8110691292
   21      H      -2.4722367041     2.5390292093     0.0710111239
   22      H      -3.7270810267    -0.2317933000    -0.1963707265
   23      H      -4.5616604910     1.3957549130    -0.1096261192
   24      H      -0.2435398966     2.8363573852     0.0164733053
 ----------------------------------------------------------------

    9    -600.7996466403      1.90e-06  Convergence criterion met
 Total energy in the final basis set =     -600.7996466403

                    Orbital Energies (a.u.)
 --------------------------------------------------------------

 Alpha MOs
 -- Occupied --
-24.7014 -19.1853 -10.2625 -10.2525 -10.2465 -10.2023 -10.2021 -10.1925
-10.1921 -10.1919 -10.1873 -10.1826 -10.1717  -1.2115  -1.0763  -0.8708
 -0.8126  -0.7683  -0.7589  -0.7268  -0.7035  -0.6447  -0.6106  -0.5749
 -0.5721  -0.5333  -0.5207  -0.5016  -0.4788  -0.4683  -0.4592  -0.4552
 -0.4425  -0.4337  -0.4236  -0.4111  -0.3875  -0.3853  -0.3742  -0.3591
 -0.3532  -0.3335  -0.3188  -0.3135  -0.2662  -0.2342  -0.2045

          Ground-State Mulliken Net Atomic Charges

     Atom                 Charge (a.u.)
  ----------------------------------------
      1 C                    -0.351921
      2 C                    -0.110381
      3 C                     0.112510
      4 C                    -0.283374
      5 C                     0.341119
      6 O                    -0.513594
      7 C                    -0.215427
      8 C                     0.154933
      9 C                    -0.114747
     10 C                    -0.352459
     11 C                    -0.294428
     12 C                     0.303994
     13 F                    -0.298675
     14 H                     0.147727
     15 H                     0.138773
     16 H                     0.145612
     17 H                     0.134544
     18 H                     0.171046
     19 H                     0.155694
     20 H                     0.154321
     21 H                     0.125626
     22 H                     0.169725
     23 H                     0.135022
     24 H                     0.144361
  ----------------------------------------
  Sum of atomic charges =     0.000000

                    Cartesian Multipole Moments
 -----------------------------------------------------------------
    Charge (ESU x 10^10)
                 0.0000
    Dipole Moment (Debye)
         X      -0.6192      Y      -2.2221      Z       0.0507
       Tot       2.3073
    Quadrupole Moments (Debye-Ang)
        XX     -73.5409     XY      -1.1899     YY     -65.4304
        XZ       0.1153     YZ       0.2375     ZZ     -78.7357

 Total job time:  33.10s(wall), 32.99s(cpu)
        *  Thank you very much for using Q-Chem.  Have a nice day.  *
