 Q-Chem 5.2, Q-Chem, Inc., Pleasanton, CA (2019)
 Q-Chem 5.2.1 for Intel X86 EM64T Linux

User input:
--------------------------------------------------------------
$molecule
0 1
C         5.04428326960000   -1.83962959500000   -1.09797078610000
C         4.40316476430000   -0.69358920640000   -0.90057596970000
C         3.06904998380000   -0.52231044150000   -0.34185860960000
C         2.28175329820000   -1.58365270300000    0.10015635850000
C         1.02427695980000   -1.37024266650000    0.62991033760000
C         0.50644373050000   -0.08508137910000    0.74185716540000
O        -0.71458119910000    0.23671490770000    1.25371583530000
C        -1.63127032160000   -0.75257767040000    1.65695048500000
C        -2.66786412090000   -1.18429537420000    0.58416566020000
C        -2.13113212070000   -1.23794750540000   -0.85576661880000
C        -2.03976331510000    0.14438224120000   -1.50418618590000
C        -3.36450183550000    0.87924144540000   -1.32406269680000
C        -3.70793629150000    0.90043612520000    0.16269943100000
O        -3.84660449580000   -0.41025686870000    0.67584977310000
C         1.27925074810000    1.00705273610000    0.29064997040000
C         0.73531434390000    2.35780055440000    0.40097378920000
C         1.08641649860000    3.39479613400000   -0.34823063210000
C         2.53964919430000    0.76240414800000   -0.23331693350000
H         6.03456175830000   -1.86075401210000   -1.51947218840000
H         4.61822805070000   -2.79730979750000   -0.85306142570000
H         4.89473266330000    0.23255023350000   -1.17386579410000
H         2.64953388530000   -2.59556459120000    0.03513803630000
H         0.45384813720000   -2.22755770420000    0.95430679960000
H        -2.19510142810000   -0.30599035650000    2.48369857790000
H        -1.11528845640000   -1.63575606590000    2.04298351740000
H        -3.00141143640000   -2.18938339120000    0.87357296320000
H        -2.82695795100000   -1.84696797490000   -1.43833829570000
H        -1.15796713550000   -1.72973665870000   -0.86847919680000
H        -1.80577529220000    0.02933995270000   -2.56474221940000
H        -1.24175956910000    0.73132228170000   -1.04962584870000
H        -4.15705983320000    0.35760728100000   -1.86489444900000
H        -3.29480209810000    1.89951990140000   -1.70219238240000
H        -4.67332801870000    1.37909888870000    0.34142165290000
H        -2.92984000530000    1.44610878380000    0.71344153740000
H        -0.03496433380000    2.47500943490000    1.15115624250000
H         1.81899283500000    3.31915030300000   -1.13420408380000
H         0.64008300420000    4.36449294280000   -0.20911061160000
H         3.13727105270000    1.60288135090000   -0.55388176900000
$end

$rem
BASIS = 6-31G*
GUI = 2
METHOD = B3LYP
PRINT_ORBITALS false
MOLDEN_FORMAT false
--------------------------------------------------------------

             Standard Nuclear Orientation (Angstroms)
    I     Atom           X                Y                Z
 ----------------------------------------------------------------
    1      C       5.2771520624    -1.2999645796    -0.7845635045
    2      C       4.5195538289    -0.2352205026    -0.5484042556
    3      C       3.1357132303    -0.2293572706    -0.0941856172
    4      C       2.4175371575    -1.3894749925     0.1886760079
    5      C       1.1081512295    -1.3326641437     0.6242341357
    6      C       0.4667830583    -0.1116530170     0.7977321980
    7      O      -0.8150193318     0.0574259001     1.2276728676
    8      C      -1.6652504887    -1.0387015658     1.4668976437
    9      C      -2.5704464248    -1.4582042544     0.2767665700
   10      C      -1.9200255667    -1.3354608128    -1.1111280637
   11      C      -1.9061300181     0.1026160113    -1.6320634567
   12      C      -3.3030366195     0.7027531919    -1.5060397278
   13      C      -3.7622496791     0.5600147081    -0.0577278981
   14      O      -3.8191215023    -0.7987640613     0.3308002480
   15      C       1.1684541484     1.0786168995     0.5070592681
   16      C       0.4952500592     2.3626321640     0.6821560417
   17      C       0.8067209971     3.4892723326     0.0547744949
   18      C       2.4831701520     0.9905344118     0.0748998107
   19      H       6.2950899223    -1.1985129008    -1.1196324953
   20      H       4.9234237337    -2.3086458853    -0.6577041038
   21      H       4.9434446931     0.7503074888    -0.7004295927
   22      H       2.8810705522    -2.3563687981     0.0715915394
   23      H       0.5956291519    -2.2612364360     0.8259413444
   24      H      -2.3308420816    -0.7183693499     2.2763624407
   25      H      -1.1017790810    -1.9060653577     1.8210768226
   26      H      -2.8314543360    -2.5100809511     0.4518168654
   27      H      -2.5089587433    -1.9462566581    -1.8000078978
   28      H      -0.9076380820    -1.7394779327    -1.0809615748
   29      H      -1.5802529049     0.1043509142    -2.6744478965
   30      H      -1.2037147164     0.7117817360    -1.0633248931
   31      H      -3.9993206501     0.1666580452    -2.1545302118
   32      H      -3.2983968601     1.7552791750    -1.7906021422
   33      H      -4.7787008574     0.9366455900     0.0764996757
   34      H      -3.0833146274     1.1178346936     0.6013573832
   35      H      -0.3388901943     2.3454979841     1.3704563640
   36      H       1.6024017455     3.5476782158    -0.6688452579
   37      H       0.2633079888     4.4008876714     0.2351619830
   38      H       3.0239392590     1.9043665633    -0.1220651605
 ----------------------------------------------------------------

    9    -772.1313401832      2.12e-06  Convergence criterion met
 Total energy in the final basis set =     -772.1313401832

                    Orbital Energies (a.u.)
 --------------------------------------------------------------

 Alpha MOs
 -- Occupied --
-19.1847 -19.1407 -10.2522 -10.2419 -10.2367 -10.2199 -10.1927 -10.1911
-10.1903 -10.1894 -10.1874 -10.1872 -10.1857 -10.1791 -10.1769 -10.1753
-10.1732 -10.1724  -1.0767  -1.0326  -0.8670  -0.8058  -0.7946  -0.7824
 -0.7753  -0.7355  -0.7313  -0.6937  -0.6383  -0.6337  -0.6325  -0.6019
 -0.5802  -0.5517  -0.5422  -0.5349  -0.5067  -0.4883  -0.4836  -0.4731
 -0.4593  -0.4546  -0.4490  -0.4410  -0.4290  -0.4225  -0.4187  -0.4096
 -0.4018  -0.3882  -0.3807  -0.3731  -0.3677  -0.3637  -0.3584  -0.3449
 -0.3400  -0.3261  -0.3233  -0.3133  -0.3027  -0.2923  -0.2723  -0.2439
 -0.2335  -0.2018

          Ground-State Mulliken Net Atomic Charges

     Atom                 Charge (a.u.)
  ----------------------------------------
      1 C                    -0.359417
      2 C                    -0.111699
      3 C                     0.189798
      4 C                    -0.197526
      5 C                    -0.189725
      6 C                     0.335631
      7 O                    -0.524365
      8 C                    -0.081874
      9 C                     0.127485
     10 C                    -0.292841
     11 C                    -0.278608
     12 C                    -0.270221
     13 C                    -0.042378
     14 O                    -0.476573
     15 C                     0.098159
     16 C                    -0.108191
     17 C                    -0.346278
     18 C                    -0.277903
     19 H                     0.142022
     20 H                     0.138387
     21 H                     0.125159
     22 H                     0.129269
     23 H                     0.134152
     24 H                     0.168221
     25 H                     0.145276
     26 H                     0.131369
     27 H                     0.141990
     28 H                     0.143749
     29 H                     0.133379
     30 H                     0.166606
     31 H                     0.137351
     32 H                     0.133103
     33 H                     0.139612
     34 H                     0.135200
     35 H                     0.148831
     36 H                     0.140575
     37 H                     0.142274
     38 H                     0.130000
  ----------------------------------------
  Sum of atomic charges =     0.000000

                    Cartesian Multipole Moments
 -----------------------------------------------------------------
    Charge (ESU x 10^10)
                 0.0000
    Dipole Moment (Debye)
         X       0.3315      Y      -0.5070      Z      -0.2667
       Tot       0.6618
    Quadrupole Moments (Debye-Ang)
        XX    -111.3626     XY      -2.2153     YY     -99.5303
        XZ      -1.5262     YZ      -2.0765     ZZ    -109.0693

 Total job time:  83.13s(wall), 82.90s(cpu)
        *  Thank you very much for using Q-Chem.  Have a nice day.  *
