 Q-Chem 5.2, Q-Chem, Inc., Pleasanton, CA (2019)
 Q-Chem 5.2.1 for Intel X86 EM64T Linux

User input:
--------------------------------------------------------------
$molecule
0 1
C         2.07491348820000   -3.31998683260000    0.26178364590000
C         2.25200336330000   -2.11584904830000   -0.26477131170000
C         1.32843581040000   -0.99077606910000   -0.11854519260000
C        -0.04339859660000   -1.23329293340000   -0.08771835010000
C        -0.97455371490000   -0.21283302870000    0.00946232300000
C        -2.47606562910000   -0.45515188740000    0.04208793240000
C        -2.83626551380000   -1.93752696690000   -0.08736970530000
C        -3.03543589590000    0.05901564950000    1.37597436280000
C        -3.13474100170000    0.29861348070000   -1.12169832810000
C        -0.48801219510000    1.08709145630000    0.08668383550000
C         0.86872182560000    1.37783936340000    0.06854841320000
C         1.32175932870000    2.76340921680000    0.20263160000000
C         0.69686535220000    3.81903622100000   -0.30139002380000
C         1.80106244660000    0.32945284500000   -0.04305412240000
N         3.15537356400000    0.60227721430000   -0.00384835700000
H         2.77752061330000   -4.11940262400000    0.09807532260000
H         1.23013914700000   -3.54907486350000    0.88897099970000
H         3.13746862270000   -1.93931571320000   -0.86722417900000
H        -0.36128077580000   -2.25904839090000   -0.17010585920000
H        -2.42272802900000   -2.51382032160000    0.73690804790000
H        -2.47272664480000   -2.34736838370000   -1.02692680730000
H        -3.91850566420000   -2.05137029940000   -0.06664052990000
H        -2.56234064940000   -0.46107232550000    2.20636245360000
H        -4.10878177000000   -0.11347344550000    1.42594833810000
H        -2.85488592950000    1.12372168900000    1.49554908170000
H        -2.72311862470000   -0.04116676850000   -2.06992753090000
H        -2.97013289990000    1.36955580220000   -1.04312979760000
H        -4.20809226870000    0.11930175710000   -1.12671016020000
H        -1.17268028850000    1.91453393360000    0.19061753910000
H         2.23051783590000    2.90881429620000    0.77483725580000
H        -0.19773061370000    3.72376391150000   -0.89400752920000
H         1.06274412860000    4.82058783040000   -0.15035344970000
H         3.43371619160000    1.51459655090000   -0.32466349100000
H         3.76758291110000   -0.14220068350000   -0.29371924110000
$end

$rem
BASIS = 6-31G*
GUI = 2
METHOD = B3LYP
PRINT_ORBITALS false
MOLDEN_FORMAT false
--------------------------------------------------------------

             Standard Nuclear Orientation (Angstroms)
    I     Atom           X                Y                Z
 ----------------------------------------------------------------
    1      C      -1.5603238036    -3.6168747928    -0.2301135010
    2      C      -1.9398619166    -2.4487849106     0.2699720903
    3      C      -1.2084443026    -1.1912499003     0.1157570349
    4      C       0.1848901680    -1.2081669846     0.1105388893
    5      C       0.9398652544    -0.0517793607     0.0075212363
    6      C       2.4611399724    -0.0474645000     0.0024712273
    7      C       3.0545269884    -1.4492300675     0.1664354188
    8      C       2.9538857742     0.5281470877    -1.3325902827
    9      C       2.9676126580     0.8228371810     1.1611231766
   10      C       0.2504647035     1.1503427573    -0.1025640622
   11      C      -1.1355617396     1.2170820423    -0.1107499588
   12      C      -1.8047611820     2.5081821664    -0.2788501512
   13      C      -1.3685724764     3.6596626938     0.2138065845
   14      C      -1.8874402641     0.0331937686     0.0072148295
   15      N      -3.2671277627     0.0816755315    -0.0579062596
   16      H      -2.1268652349    -4.5169341043    -0.0614515992
   17      H      -0.6783244109    -3.7162382444    -0.8397797754
   18      H      -2.8530356049    -2.4082985966     0.8553240140
   19      H       0.6633412070    -2.1671144388     0.2178488306
   20      H       2.7549591663    -2.0988855780    -0.6525688144
   21      H       2.7452388564    -1.8967612504     1.1082181623
   22      H       4.1411001867    -1.3860775526     0.1643882619
   23      H       2.5865556935    -0.0758365521    -2.1597102076
   24      H       4.0417248468     0.5315026065    -1.3628581547
   25      H       2.6052865764     1.5472046318    -1.4757533900
   26      H       2.5993673551     0.4367612825     2.1094706960
   27      H       2.6329851592     1.8513295751     1.0590735340
   28      H       4.0555639433     0.8203910863     1.1859580813
   29      H       0.7936765429     2.0761474597    -0.2122919829
   30      H      -2.7145184343     2.4943382006    -0.8675385753
   31      H      -0.4812879986     3.7210100914     0.8217021471
   32      H      -1.8892045048     4.5857747188     0.0376141893
   33      H      -3.6955038882     0.9419423320     0.2406878921
   34      H      -3.7556841226    -0.7473674709     0.2371753188
 ----------------------------------------------------------------

    8    -599.6472194713      9.78e-06  Convergence criterion met
 Total energy in the final basis set =     -599.6472194713

                    Orbital Energies (a.u.)
 --------------------------------------------------------------

 Alpha MOs
 -- Occupied --
-14.3402 -10.2210 -10.1900 -10.1883 -10.1869 -10.1807 -10.1802 -10.1765
-10.1748 -10.1733 -10.1724 -10.1712 -10.1645 -10.1638 -10.1630  -0.9248
 -0.8494  -0.8095  -0.8009  -0.7609  -0.7120  -0.7109  -0.6806  -0.6796
 -0.6317  -0.6065  -0.5869  -0.5347  -0.5297  -0.5247  -0.5184  -0.4634
 -0.4594  -0.4526  -0.4413  -0.4345  -0.4271  -0.4190  -0.4105  -0.3952
 -0.3896  -0.3756  -0.3719  -0.3624  -0.3606  -0.3586  -0.3389  -0.3280
 -0.3160  -0.3078  -0.2981  -0.2951  -0.2665  -0.2160  -0.1889

          Ground-State Mulliken Net Atomic Charges

     Atom                 Charge (a.u.)
  ----------------------------------------
      1 C                    -0.338929
      2 C                    -0.142205
      3 C                     0.159079
      4 C                    -0.287837
      5 C                     0.202930
      6 C                     0.006203
      7 C                    -0.453658
      8 C                    -0.435794
      9 C                    -0.435929
     10 C                    -0.276213
     11 C                     0.147736
     12 C                    -0.154893
     13 C                    -0.337607
     14 C                     0.169014
     15 N                    -0.809522
     16 H                     0.137816
     17 H                     0.144317
     18 H                     0.116879
     19 H                     0.124181
     20 H                     0.142992
     21 H                     0.145434
     22 H                     0.138885
     23 H                     0.145740
     24 H                     0.134585
     25 H                     0.143180
     26 H                     0.145383
     27 H                     0.139539
     28 H                     0.135185
     29 H                     0.123471
     30 H                     0.135603
     31 H                     0.143285
     32 H                     0.139321
     33 H                     0.326531
     34 H                     0.325296
  ----------------------------------------
  Sum of atomic charges =     0.000000

                    Cartesian Multipole Moments
 -----------------------------------------------------------------
    Charge (ESU x 10^10)
                 0.0000
    Dipole Moment (Debye)
         X      -1.1770      Y       0.1061      Z       0.8672
       Tot       1.4659
    Quadrupole Moments (Debye-Ang)
        XX     -80.5936     XY      -0.3794     YY     -86.8513
        XZ      -3.6428     YZ       0.1953     ZZ     -95.3512

 Total job time:  54.45s(wall), 53.42s(cpu)
        *  Thank you very much for using Q-Chem.  Have a nice day.  *
