 Q-Chem 5.2, Q-Chem, Inc., Pleasanton, CA (2019)
 Q-Chem 5.2.1 for Intel X86 EM64T Linux

User input:
--------------------------------------------------------------
$molecule
0 1
C         2.98106140840000   -4.06469968140000    2.18222330560000
C         2.60880994930000   -3.53379865210000    1.02074008560000
C         2.69055370800000   -2.13916592850000    0.68676809280000
C         2.32684913040000   -1.54975392840000   -0.49572945740000
C         2.52823058360000   -0.15648233640000   -0.53669075480000
C         2.15473265160000    0.65574228660000   -1.73757137630000
C         0.63904632950000    0.88824277670000   -1.80564801670000
C         0.13467089440000    1.75040221950000   -0.65161349360000
C        -1.35977222340000    2.05993500140000   -0.73998435410000
C        -2.24831235100000    0.83550343170000   -0.53066519670000
C        -3.72819964130000    1.21097456570000   -0.49320729150000
C        -4.62015542580000   -0.01488168480000   -0.31041830720000
C        -6.09685159350000    0.32995065280000   -0.11050530140000
C        -6.76010072410000    1.04166975540000   -1.29095418680000
C        -6.78191889160000    0.20387576030000   -2.56399154790000
C         3.05275358360000    0.33161577730000    0.64107807490000
C         3.38932796530000    1.68804681280000    0.97401175240000
C         3.86189355420000    2.08976428120000    2.15119452570000
S         3.30068903310000   -0.95028065860000    1.79648708390000
H         2.89722708190000   -5.11926285070000    2.37596817160000
H         3.38203025560000   -3.45373659350000    2.97408550750000
H         2.20788714410000   -4.16177703290000    0.23460178760000
H         1.92673709000000   -2.10890969490000   -1.32431479300000
H         2.46764410300000    0.11463972470000   -2.63435451670000
H         2.67032829600000    1.61665541930000   -1.72949805700000
H         0.13537724840000   -0.07934076120000   -1.78999209090000
H         0.40024938080000    1.37840310010000   -2.75257999830000
H         0.68572342990000    2.69443295280000   -0.65141537920000
H         0.34302773080000    1.24801174290000    0.29554728740000
H        -1.58005058680000    2.50521123740000   -1.71353662590000
H        -1.60531049980000    2.80221861580000    0.02375702280000
H        -1.97356145740000    0.34860055230000    0.40828062370000
H        -2.08678305230000    0.11730449030000   -1.33666186800000
H        -3.98535651120000    1.72104819190000   -1.42324601330000
H        -3.90305636020000    1.90952570160000    0.32883923980000
H        -4.27870506130000   -0.56687572470000    0.56938079870000
H        -4.50826570640000   -0.67723284530000   -1.17045914920000
H        -6.19041305210000    0.96530951120000    0.77406057010000
H        -6.64392690170000   -0.59496142160000    0.09013138230000
H        -6.25099953190000    1.98702478900000   -1.48528619470000
H        -7.78877963720000    1.27925152390000   -1.00806616500000
H        -5.77602009120000    0.03852199250000   -2.94077376920000
H        -7.35340071450000    0.71008453930000   -3.33899690340000
H        -7.24286787510000   -0.76345544410000   -2.37494741510000
H         3.23132434460000    2.41132056610000    0.18525340560000
H         4.02551097310000    1.39564792040000    2.95888970770000
H         4.09771788730000    3.12151852670000    2.34272906450000
$end

$rem
BASIS = 6-31G*
GUI = 2
METHOD = B3LYP
PRINT_ORBITALS false
MOLDEN_FORMAT false
--------------------------------------------------------------

             Standard Nuclear Orientation (Angstroms)
    I     Atom           X                Y                Z
 ----------------------------------------------------------------
    1      C      -4.2366662104     3.6593832250     0.4210089454
    2      C      -3.5020997872     2.9920893335    -0.4647683146
    3      C      -3.2559299488     1.5772789203    -0.4342449938
    4      C      -2.5141780421     0.8479673641    -1.3263754466
    5      C      -2.4549054859    -0.5303125901    -1.0430572886
    6      C      -1.6607082834    -1.4729912780    -1.8927228142
    7      C      -0.1588188622    -1.3629447553    -1.5957146273
    8      C       0.1851271417    -1.8208854055    -0.1809705967
    9      C       1.6851259480    -1.7931923695     0.1126564817
   10      C       2.2683575165    -0.3827860049     0.1687417849
   11      C       3.7347052295    -0.3942119466     0.5955226322
   12      C       4.3275214560     1.0126669951     0.6268442901
   13      C       5.7452625877     1.0642761579     1.1985546191
   14      C       6.7932026451     0.2874778858     0.3996121043
   15      C       6.9845463637     0.8168134023    -1.0167884131
   16      C      -3.1623363553    -0.8623253515     0.0926419029
   17      C      -3.3309743254    -2.1566596158     0.6928854779
   18      C      -4.0036796584    -2.3948915975     1.8159026193
   19      S      -3.9068434944     0.5454714858     0.8022316592
   20      H      -4.3872458200     4.7216821459     0.3467423362
   21      H      -4.7094188407     3.1564843733     1.2484721491
   22      H      -3.0337538774     3.5123636764    -1.2912524844
   23      H      -2.0241762240     1.2936188995    -2.1752519993
   24      H      -1.8303506943    -1.2215485134    -2.9429244845
   25      H      -1.9879170305    -2.5016741447    -1.7377902764
   26      H       0.1499859064    -0.3255811931    -1.7323235904
   27      H       0.3883113588    -1.9761825541    -2.3158182495
   28      H      -0.1768493318    -2.8432907015    -0.0449066227
   29      H      -0.3351597942    -1.1890420324     0.5422152463
   30      H       2.2134350263    -2.3736884346    -0.6479428517
   31      H       1.8583310216    -2.2794981296     1.0760264056
   32      H       1.6894981244     0.2174590378     0.8750061929
   33      H       2.1898718069     0.0907718736    -0.8116229416
   34      H       4.2985953469    -1.0185797123    -0.0997971593
   35      H       3.8185173910    -0.8426426222     1.5885958984
   36      H       3.6884787224     1.6469312842     1.2470583132
   37      H       4.3194112599     1.4329530727    -0.3802269372
   38      H       5.7251529720     0.6706878053     2.2181502343
   39      H       6.0569807283     2.1104536463     1.2564621389
   40      H       6.5196570450    -0.7681211034     0.3605138769
   41      H       7.7447608826     0.3565674507     0.9329174469
   42      H       6.0904714136     0.6642679173    -1.6155362449
   43      H       7.8089656874     0.3008287767    -1.5041945557
   44      H       7.2097001302     1.8811876299    -0.9979577592
   45      H      -2.8597239045    -2.9760338767     0.1667879039
   46      H      -4.4799294318    -1.6004575018     2.3663572587
   47      H      -4.0974155388    -3.3879750584     2.2181640308
 ----------------------------------------------------------------

    9   -1100.9384476181      1.68e-06  Convergence criterion met
 Total energy in the final basis set =    -1100.9384476181

                    Orbital Energies (a.u.)
 --------------------------------------------------------------

 Alpha MOs
 -- Occupied --
-88.8960 -10.2158 -10.2124 -10.1968 -10.1945 -10.1920 -10.1875 -10.1855
-10.1809 -10.1789 -10.1783 -10.1715 -10.1710 -10.1708 -10.1700 -10.1697
-10.1696 -10.1690 -10.1660  -7.9582  -5.9222  -5.9187  -5.9148  -0.8886
 -0.8171  -0.8075  -0.7986  -0.7806  -0.7669  -0.7445  -0.7183  -0.7053
 -0.6843  -0.6465  -0.6256  -0.6154  -0.5934  -0.5716  -0.5626  -0.5480
 -0.5439  -0.5162  -0.4952  -0.4779  -0.4638  -0.4590  -0.4547  -0.4469
 -0.4368  -0.4271  -0.4247  -0.4177  -0.4065  -0.3989  -0.3918  -0.3873
 -0.3821  -0.3770  -0.3742  -0.3595  -0.3551  -0.3545  -0.3490  -0.3437
 -0.3366  -0.3303  -0.3225  -0.3201  -0.3156  -0.3123  -0.3108  -0.3063
 -0.2927  -0.2668  -0.2426  -0.1958

          Ground-State Mulliken Net Atomic Charges

     Atom                 Charge (a.u.)
  ----------------------------------------
      1 C                    -0.374025
      2 C                    -0.055407
      3 C                    -0.134559
      4 C                    -0.177729
      5 C                     0.156803
      6 C                    -0.346862
      7 C                    -0.255000
      8 C                    -0.258941
      9 C                    -0.254956
     10 C                    -0.256684
     11 C                    -0.254987
     12 C                    -0.257164
     13 C                    -0.250929
     14 C                    -0.252552
     15 C                    -0.443997
     16 C                    -0.208067
     17 C                    -0.049557
     18 C                    -0.378695
     19 S                     0.236197
     20 H                     0.146363
     21 H                     0.157213
     22 H                     0.137149
     23 H                     0.132191
     24 H                     0.144460
     25 H                     0.143188
     26 H                     0.141746
     27 H                     0.130041
     28 H                     0.121600
     29 H                     0.149525
     30 H                     0.124299
     31 H                     0.127798
     32 H                     0.131443
     33 H                     0.130745
     34 H                     0.131892
     35 H                     0.127263
     36 H                     0.127701
     37 H                     0.130594
     38 H                     0.125560
     39 H                     0.124208
     40 H                     0.135432
     41 H                     0.129523
     42 H                     0.145334
     43 H                     0.141506
     44 H                     0.141504
     45 H                     0.137505
     46 H                     0.156968
     47 H                     0.144362
  ----------------------------------------
  Sum of atomic charges =     0.000000

                    Cartesian Multipole Moments
 -----------------------------------------------------------------
    Charge (ESU x 10^10)
                 0.0000
    Dipole Moment (Debye)
         X       0.8439      Y      -0.2041      Z      -0.8498
       Tot       1.2149
    Quadrupole Moments (Debye-Ang)
        XX    -133.3878     XY      -0.8363     YY    -119.6354
        XZ      -1.3912     YZ      -1.1365     ZZ    -123.6466

 Total job time:  86.48s(wall), 86.25s(cpu)
        *  Thank you very much for using Q-Chem.  Have a nice day.  *
