 Q-Chem 5.2, Q-Chem, Inc., Pleasanton, CA (2019)
 Q-Chem 5.2.1 for Intel X86 EM64T Linux

User input:
--------------------------------------------------------------
$molecule
0 1
C         2.69791060630000   -0.23291560440000    2.75624936170000
C         3.31011221110000    0.24698967320000    1.68124653590000
C         2.63709546470000    0.42728266860000    0.39870017010000
C         3.31996294970000    0.96285964670000   -0.69820436380000
C         2.63631572650000    1.13092131030000   -1.88867719640000
C         1.30610350830000    0.75423936400000   -1.96057279760000
C         0.70664218690000    0.21402636390000   -0.81983257610000
C        -0.70686595810000   -0.21240508410000   -0.81989717040000
C        -1.30557298020000   -0.75402782940000   -1.96035565250000
C        -2.63545313780000   -1.13188472100000   -1.88847772600000
C        -3.31952040930000   -0.96359725980000   -0.69828675750000
C        -2.63737260830000   -0.42663428110000    0.39838985220000
C        -3.31063707570000   -0.24686960220000    1.68088712090000
C        -2.69815513820000    0.23059415030000    2.75679366350000
N        -1.36199603670000   -0.06367887970000    0.31990285280000
N         1.36135951120000    0.06558717320000    0.32023152630000
H         3.20566816060000   -0.35801940800000    3.69731623990000
H         1.65939856950000   -0.51116807560000    2.70356594290000
H         4.35303731940000    0.53555513210000    1.70909454850000
H         4.35873200220000    1.24431182600000   -0.61032943200000
H         3.13217166570000    1.55382272120000   -2.75144569090000
H         0.74125700680000    0.89533828240000   -2.86896048340000
H        -0.74036810360000   -0.89547196320000   -2.86846667890000
H        -3.13063374690000   -1.55603030620000   -2.75101722770000
H        -4.35798675080000   -1.24614222360000   -0.61034042540000
H        -4.35386409140000   -0.53441283540000    1.70808785930000
H        -1.65934366260000    0.50785045390000    2.70479076700000
H        -3.20595977470000    0.35478330150000    3.69796119210000
$end

$rem
BASIS = 6-31G*
GUI = 2
METHOD = B3LYP
PRINT_ORBITALS false
MOLDEN_FORMAT false
--------------------------------------------------------------

             Standard Nuclear Orientation (Angstroms)
    I     Atom           X                Y                Z
 ----------------------------------------------------------------
    1      C      -2.6063709529    -2.7396094973     0.7333542500
    2      C      -3.2976793251    -1.6646401633     0.3766125769
    3      C      -2.6704270265    -0.3819957155     0.0736933468
    4      C      -3.4415736310     0.7148714858    -0.3245095100
    5      C      -2.8015800714     1.9054426453    -0.6174128588
    6      C      -1.4243833088     1.9774686632    -0.4963172708
    7      C      -0.7342971485     0.8367551510    -0.0779561962
    8      C       0.7340416624     0.8369560642     0.0764139954
    9      C       1.4234129897     1.9774410154     0.4965474206
   10      C       2.8005184206     1.9056933649     0.6188438121
   11      C       3.4411303977     0.7156008211     0.3253829545
   12      C       2.6706599370    -0.3811128883    -0.0745529878
   13      C       3.2985217082    -1.6635120615    -0.3772765974
   14      C       2.6076189772    -2.7394523174    -0.7317996983
   15      N       1.3498831783    -0.3027507751    -0.1924103790
   16      N      -1.3495493706    -0.3034020341     0.1902627853
   17      H      -3.0816475524    -3.6807494284     0.9511691918
   18      H      -1.5341391733    -2.6868228902     0.8123467557
   19      H      -4.3761787951    -1.6925910124     0.2883178405
   20      H      -4.5146530201     0.6268936116    -0.4066008957
   21      H      -3.3679083249     2.7681869742    -0.9399538998
   22      H      -0.8960163259     2.8859377841    -0.7405320337
   23      H       0.8945693025     2.8854705125     0.7413645336
   24      H       3.3662363493     2.7682568223     0.9429197480
   25      H       4.5141352495     0.6277573016     0.4085854811
   26      H       4.3771321857    -1.6906098373    -0.2900484713
   27      H       1.5352685669    -2.6875527334    -0.8097462929
   28      H       3.0833091117    -3.6805468454    -0.9489282235
 ----------------------------------------------------------------

    9    -650.1795023172      2.85e-06  Convergence criterion met
 Total energy in the final basis set =     -650.1795023172

                    Orbital Energies (a.u.)
 --------------------------------------------------------------

 Alpha MOs
 -- Occupied --
-14.3164 -14.3164 -10.2234 -10.2230 -10.2219 -10.2219 -10.2037 -10.2037
-10.1939 -10.1939 -10.1928 -10.1928 -10.1813 -10.1813 -10.1735 -10.1735
 -0.9577  -0.9365  -0.8132  -0.8063  -0.8017  -0.7835  -0.7463  -0.7230
 -0.6579  -0.6459  -0.6285  -0.6010  -0.5715  -0.5547  -0.5263  -0.4977
 -0.4962  -0.4760  -0.4734  -0.4529  -0.4439  -0.4250  -0.4233  -0.4123
 -0.3968  -0.3950  -0.3927  -0.3815  -0.3767  -0.3516  -0.3455  -0.3131
 -0.3008  -0.2922  -0.2656  -0.2495  -0.2420  -0.2333  -0.2213

          Ground-State Mulliken Net Atomic Charges

     Atom                 Charge (a.u.)
  ----------------------------------------
      1 C                    -0.332270
      2 C                    -0.114878
      3 C                     0.326879
      4 C                    -0.183890
      5 C                    -0.100190
      6 C                    -0.171142
      7 C                     0.251416
      8 C                     0.251445
      9 C                    -0.171129
     10 C                    -0.100180
     11 C                    -0.183882
     12 C                     0.326843
     13 C                    -0.114869
     14 C                    -0.332284
     15 N                    -0.529951
     16 N                    -0.529954
     17 H                     0.139418
     18 H                     0.181601
     19 H                     0.122811
     20 H                     0.134346
     21 H                     0.138821
     22 H                     0.137016
     23 H                     0.137012
     24 H                     0.138817
     25 H                     0.134346
     26 H                     0.122807
     27 H                     0.181621
     28 H                     0.139418
  ----------------------------------------
  Sum of atomic charges =     0.000000

                    Cartesian Multipole Moments
 -----------------------------------------------------------------
    Charge (ESU x 10^10)
                 0.0000
    Dipole Moment (Debye)
         X      -0.0010      Y       2.2311      Z       0.0038
       Tot       2.2311
    Quadrupole Moments (Debye-Ang)
        XX     -74.4525     XY      -0.0015     YY     -81.0953
        XZ       2.6748     YZ      -0.0008     ZZ     -95.5733

 Total job time:  48.01s(wall), 47.86s(cpu)
        *  Thank you very much for using Q-Chem.  Have a nice day.  *
