 Q-Chem 5.2, Q-Chem, Inc., Pleasanton, CA (2019)
 Q-Chem 5.2.1 for Intel X86 EM64T Linux

User input:
--------------------------------------------------------------
$molecule
0 1
C        -7.11680129440000    0.64614356210000    0.02517643520000
C        -6.43918017590000   -0.49894088650000    0.00186994020000
C        -5.00857693620000   -0.61142581870000   -0.00501534650000
C        -4.26829103080000   -1.76890871510000   -0.02367504380000
C        -2.88656929030000   -1.55370787450000   -0.02446841430000
C        -2.54555047770000   -0.22139254540000   -0.00669602090000
C        -1.24516987870000    0.35401585730000   -0.00199499320000
C        -0.90118893880000    1.68648687240000    0.00967492650000
C         0.47767891970000    1.90595573030000    0.01197315410000
C         1.21799032130000    0.74398617510000    0.00173394510000
C         2.63547425660000    0.60713818060000    0.00179782050000
C         3.58384863620000    1.60737099140000    0.00986639350000
C         4.89631054510000    1.12840749180000    0.00919956180000
C         4.98310291420000   -0.24382143420000    0.00016241590000
C         6.13784065760000   -1.09906901220000   -0.00315279950000
C         7.40296141720000   -0.68383914090000    0.00660485710000
S         3.39579523900000   -0.95466962530000   -0.00741394520000
S         0.17653986190000   -0.65069136890000   -0.01074949530000
S        -3.96704622760000    0.78338615060000    0.01142132260000
H        -8.19190283730000    0.66766069220000    0.02882595370000
H        -6.60991251890000    1.59683530260000    0.04092832720000
H        -6.96423613790000   -1.44582988340000   -0.01346753480000
H        -4.71830496030000   -2.74608424210000   -0.03605739830000
H        -2.15058607330000   -2.33840203610000   -0.03751790300000
H        -1.63674401030000    2.47151417520000    0.01661074550000
H         0.92267556890000    2.88411444790000    0.02070780570000
H         3.33248203210000    2.65246602420000    0.01636957470000
H         5.75746916970000    1.77164303880000    0.01471818700000
H         5.92050073150000   -2.15932781240000   -0.01378009910000
H         7.66413176200000    0.35995450210000    0.01763669250000
H         8.21993804520000   -1.38322375060000    0.00388733630000
$end

$rem
BASIS = 6-31G*
GUI = 2
METHOD = B3LYP
PRINT_ORBITALS false
MOLDEN_FORMAT false
--------------------------------------------------------------

             Standard Nuclear Orientation (Angstroms)
    I     Atom           X                Y                Z
 ----------------------------------------------------------------
    1      C       7.1245202805    -0.6072933228     0.0186190507
    2      C       6.4418317895     0.5349455217     0.0060169230
    3      C       5.0107436919     0.6411512542     0.0002640115
    4      C       4.2653365815     1.7954670223    -0.0075723575
    5      C       2.8845814649     1.5741642143    -0.0102879924
    6      C       2.5494687284     0.2402435717    -0.0049030313
    7      C       1.2516498986    -0.3409384821    -0.0054836513
    8      C       0.9135751407    -1.6749710987    -0.0062021739
    9      C      -0.4643069080    -1.9005578434    -0.0058662583
   10      C      -1.2097585410    -0.7418341785    -0.0052407218
   11      C      -2.6278346716    -0.6112732726    -0.0038186738
   12      C      -3.5717688125    -1.6157291764    -0.0050087710
   13      C      -4.8863392813    -1.1425989208    -0.0011377503
   14      C      -4.9792094322     0.2292567227     0.0026091383
   15      C      -6.1377241454     1.0793744033     0.0073266076
   16      C      -7.4009924195     0.6584714729     0.0132919315
   17      S      -3.3950665057     0.9471691777     0.0015588301
   18      S      -0.1744967083     0.6574989087    -0.0047976443
   19      S       3.9754026030    -0.7583534187     0.0037727443
   20      H       8.1997069405    -0.6240807720     0.0220044681
   21      H       6.6218487605    -1.5603266288     0.0255471723
   22      H       6.9626872020     1.4842529049    -0.0005332858
   23      H       4.7110168528     2.7746993839    -0.0108811017
   24      H       2.1451286790     2.3556778869    -0.0159861447
   25      H       1.6526006472    -2.4567628617    -0.0066205032
   26      H      -0.9049659598    -2.8807171507    -0.0062145112
   27      H      -3.3157752017    -2.6597156876    -0.0082528997
   28      H      -5.7446399523    -1.7896664459    -0.0015584013
   29      H      -5.9250834014     2.1406385708     0.0065602907
   30      H      -7.6575360372    -0.3865263412     0.0146186856
   31      H      -8.2210589408     1.3542251322     0.0171356661
 ----------------------------------------------------------------

    9   -1811.4304101092      4.67e-06  Convergence criterion met
 Total energy in the final basis set =    -1811.4304101092

                    Orbital Energies (a.u.)
 --------------------------------------------------------------

 Alpha MOs
 -- Occupied --
-88.9109 -88.9100 -88.9062 -10.2302 -10.2291 -10.2286 -10.2280 -10.2217
-10.2200 -10.2012 -10.1994 -10.1963 -10.1956 -10.1956 -10.1940 -10.1932
-10.1928 -10.1845 -10.1826  -7.9727  -7.9719  -7.9681  -5.9368  -5.9358
 -5.9333  -5.9323  -5.9322  -5.9294  -5.9288  -5.9286  -5.9248  -0.9083
 -0.8945  -0.8779  -0.8077  -0.7952  -0.7666  -0.7540  -0.7426  -0.7363
 -0.7182  -0.6872  -0.6308  -0.6108  -0.6032  -0.5739  -0.5489  -0.5374
 -0.5352  -0.5294  -0.5110  -0.4932  -0.4705  -0.4574  -0.4430  -0.4262
 -0.4209  -0.4179  -0.4158  -0.4028  -0.3989  -0.3888  -0.3830  -0.3769
 -0.3750  -0.3652  -0.3629  -0.3582  -0.3419  -0.3344  -0.3236  -0.3003
 -0.2658  -0.2623  -0.2573  -0.2523  -0.2184  -0.1785

          Ground-State Mulliken Net Atomic Charges

     Atom                 Charge (a.u.)
  ----------------------------------------
      1 C                    -0.375456
      2 C                    -0.058663
      3 C                    -0.129660
      4 C                    -0.143201
      5 C                    -0.147578
      6 C                    -0.149354
      7 C                    -0.136339
      8 C                    -0.156929
      9 C                    -0.116428
     10 C                    -0.152430
     11 C                    -0.167415
     12 C                    -0.108370
     13 C                    -0.133647
     14 C                    -0.119398
     15 C                    -0.092546
     16 C                    -0.341726
     17 S                     0.253411
     18 S                     0.268950
     19 S                     0.258898
     20 H                     0.147583
     21 H                     0.155091
     22 H                     0.139514
     23 H                     0.141450
     24 H                     0.154281
     25 H                     0.156128
     26 H                     0.142146
     27 H                     0.140898
     28 H                     0.141134
     29 H                     0.138847
     30 H                     0.142564
     31 H                     0.148245
  ----------------------------------------
  Sum of atomic charges =     0.000000

                    Cartesian Multipole Moments
 -----------------------------------------------------------------
    Charge (ESU x 10^10)
                 0.0000
    Dipole Moment (Debye)
         X      -0.3587      Y      -0.4638      Z      -0.0034
       Tot       0.5863
    Quadrupole Moments (Debye-Ang)
        XX    -111.8515     XY       5.5915     YY    -117.3213
        XZ      -0.0179     YZ      -0.0268     ZZ    -138.9267

 Total job time:  67.47s(wall), 66.58s(cpu)
        *  Thank you very much for using Q-Chem.  Have a nice day.  *
