 Q-Chem 5.2, Q-Chem, Inc., Pleasanton, CA (2019)
 Q-Chem 5.2.1 for Intel X86 EM64T Linux

User input:
--------------------------------------------------------------
$molecule
0 1
C         3.55431485720000   -1.21405923360000   -0.11057862100000
C         2.85588892070000   -0.15286045350000    0.27076997420000
C         1.41184652050000    0.00426035310000    0.11037527130000
C         0.57076937200000   -1.10314324040000    0.15393617540000
C        -0.80684467180000   -1.01020726470000    0.02911254670000
C        -1.61825222970000   -2.27136615810000    0.05917568620000
C        -1.37553261660000    0.25563396000000   -0.15337697930000
C        -2.81177444200000    0.50661957960000   -0.28444436110000
C        -3.78114508950000   -0.06415579220000    0.41698532050000
C        -0.52859459410000    1.36237537040000   -0.23231382210000
C         0.84272057750000    1.27056699870000   -0.09004308750000
C         1.69263174250000    2.50308378580000   -0.18193738060000
H         4.61863063680000   -1.27462464040000    0.04178057390000
H         3.09757525200000   -2.05508450000000   -0.60494180270000
H         3.37184737500000    0.68007675650000    0.73040210270000
H         1.00930896890000   -2.07833165390000    0.31070084140000
H        -1.03100130930000   -3.10291627460000   -0.32584031640000
H        -2.52185581750000   -2.17023062000000   -0.53712708070000
H        -1.90815857050000   -2.51651868770000    1.08116494750000
H        -3.06656978690000    1.28259423510000   -0.99783481460000
H        -3.58823843410000   -0.79724474710000    1.18021307090000
H        -4.81323636560000    0.20842191660000    0.27107925140000
H        -0.97304332780000    2.33555799720000   -0.39442933040000
H         1.08520311540000    3.36627059630000   -0.44324885990000
H         2.46799025100000    2.38205141970000   -0.93706650060000
H         2.17970906870000    2.70621583680000    0.77219331800000
$end

$rem
BASIS = 6-31G*
GUI = 2
METHOD = B3LYP
PRINT_ORBITALS false
MOLDEN_FORMAT false
--------------------------------------------------------------

             Standard Nuclear Orientation (Angstroms)
    I     Atom           X                Y                Z
 ----------------------------------------------------------------
    1      C       3.4223487548    -1.5376610844    -0.1764363231
    2      C       2.8249709442    -0.4431387583     0.2758125243
    3      C       1.4050933049    -0.1351556356     0.1184411558
    4      C       0.4603515118    -1.1556626549     0.0774605645
    5      C      -0.9000832903    -0.9203850420    -0.0486349617
    6      C      -1.8299948226    -2.0954636803    -0.1139228461
    7      C      -1.3412556903     0.4045545559    -0.1433154097
    8      C      -2.7446700248     0.8028845441    -0.2646597420
    9      C      -3.7736948842     0.2810440350     0.3882245490
   10      C      -0.3902875248     1.4263367388    -0.1376314416
   11      C       0.9637618930     1.1915574049     0.0059090658
   12      C       1.9300224617     2.3388274138     0.0077035076
   13      H       4.4737556739    -1.7122358150    -0.0224339679
   14      H       2.8928330738    -2.2930967318    -0.7325475056
   15      H       3.4130896683     0.3009573060     0.7970577922
   16      H       0.8004434412    -2.1775663276     0.1665388651
   17      H      -1.3210007313    -2.9509194587    -0.5540330461
   18      H      -2.7117908094    -1.8648519246    -0.7068468603
   19      H      -2.1554478596    -2.3829167469     0.8861064308
   20      H      -2.9139651232     1.6485161771    -0.9221014381
   21      H      -3.6624894273    -0.5195124416     1.0980778201
   22      H      -4.7726072626     0.6624934378     0.2560504066
   23      H      -0.7363851965     2.4472034412    -0.2322259315
   24      H       1.4123661711     3.2733928924    -0.1946922112
   25      H       2.6997392586     2.1965899740    -0.7494980518
   26      H       2.4220833233     2.4255191951     0.9768438408
 ----------------------------------------------------------------

    8    -465.6734839151      4.15e-06  Convergence criterion met
 Total energy in the final basis set =     -465.6734839151

                    Orbital Energies (a.u.)
 --------------------------------------------------------------

 Alpha MOs
 -- Occupied --
-10.1872 -10.1869 -10.1866 -10.1862 -10.1860 -10.1853 -10.1778 -10.1771
-10.1768 -10.1766 -10.1757 -10.1726  -0.8658  -0.8087  -0.7773  -0.7649
 -0.7199  -0.7104  -0.6531  -0.6271  -0.5919  -0.5618  -0.5342  -0.4927
 -0.4735  -0.4661  -0.4363  -0.4289  -0.4241  -0.4176  -0.4109  -0.3983
 -0.3894  -0.3866  -0.3674  -0.3555  -0.3471  -0.3285  -0.3231  -0.2982
 -0.2634  -0.2334  -0.2096

          Ground-State Mulliken Net Atomic Charges

     Atom                 Charge (a.u.)
  ----------------------------------------
      1 C                    -0.338354
      2 C                    -0.130425
      3 C                     0.119312
      4 C                    -0.255468
      5 C                     0.132985
      6 C                    -0.535388
      7 C                     0.114911
      8 C                    -0.140178
      9 C                    -0.337019
     10 C                    -0.260898
     11 C                     0.131292
     12 C                    -0.536105
     13 H                     0.140795
     14 H                     0.143399
     15 H                     0.130659
     16 H                     0.119791
     17 H                     0.151895
     18 H                     0.167393
     19 H                     0.160254
     20 H                     0.133184
     21 H                     0.147225
     22 H                     0.140802
     23 H                     0.117019
     24 H                     0.155672
     25 H                     0.165896
     26 H                     0.161352
  ----------------------------------------
  Sum of atomic charges =     0.000000

                    Cartesian Multipole Moments
 -----------------------------------------------------------------
    Charge (ESU x 10^10)
                 0.0000
    Dipole Moment (Debye)
         X       0.0725      Y       0.1670      Z       0.0238
       Tot       0.1836
    Quadrupole Moments (Debye-Ang)
        XX     -66.9508     XY       0.3350     YY     -67.3895
        XZ       0.5932     YZ      -0.4845     ZZ     -74.4996

 Total job time:  29.36s(wall), 29.26s(cpu)
        *  Thank you very much for using Q-Chem.  Have a nice day.  *
