 Q-Chem 5.4, Q-Chem, Inc., Pleasanton, CA (2021)
 Q-Chem 5.4.2 for Intel X86 EM64T Linux

User input:
--------------------------------------------------------------
$molecule
0 1
C            1.49897788390000       -3.61566809270000        0.62403361670000
C            0.70603919450000       -2.90690149470000       -0.16634098210000
C            0.56279524230000       -1.44779261450000       -0.12821898030000
C           -0.71102514690000       -0.93197854510000       -0.12559044690000
C           -0.96899371170000        0.44890969370000       -0.00091611570000
C           -2.30274177820000        1.02347533640000        0.02737245690000
C           -3.46644522640000        0.40328140300000       -0.09806407210000
F           -3.69014260910000       -0.89331675320000       -0.27975047240000
F           -4.63454858250000        1.03874458890000       -0.05772767340000
C            0.12296097540000        1.28653164820000        0.11246308020000
F           -0.07748836770000        2.61592306770000        0.26090454650000
C            1.45222229140000        0.82658743640000        0.06379077630000
C            2.54584668170000        1.71585772780000        0.13772416190000
C            3.82565720890000        1.24765320350000        0.04506154560000
C            4.05933640180000       -0.12115613710000       -0.14821023860000
C            3.01651128840000       -1.00533149850000       -0.20981033900000
C            1.68300066890000       -0.56901106190000       -0.07733093090000
H            1.52866982040000       -4.69081838500000        0.57321656810000
H            2.12640983750000       -3.15365128370000        1.36811128410000
H            0.04518232090000       -3.41383064660000       -0.85854516040000
H           -1.54286475780000       -1.61421870740000       -0.18927693680000
H           -2.36084675420000        2.09392382940000        0.16334579990000
H            2.34811773330000        2.77030166010000        0.25806724270000
H            4.66075138900000        1.92951913170000        0.10137085860000
H            5.07386891830000       -0.47530665050000       -0.25607222140000
H            3.20752455960000       -2.05255857870000       -0.38375361310000
$end

$rem
BASIS = 6-31G*
GUI = 2
METHOD = B3LYP
PRINT_ORBITALS false
MOLDEN_FORMAT false
$end
--------------------------------------------------------------

             Standard Nuclear Orientation (Angstroms)
    I     Atom           X                Y                Z
 ----------------------------------------------------------------
    1      C       1.8328220010     3.3670780896    -0.6252160354
    2      C       0.9457094512     2.7678675658     0.1556629143
    3      C       0.6286672906     1.3361914303     0.1281210788
    4      C      -0.6976923117     0.9771421367     0.1048131936
    5      C      -1.1175733688    -0.3641017579    -0.0122701540
    6      C      -2.5100042226    -0.7745701194    -0.0618873661
    7      C      -3.5927643726    -0.0176652780     0.0345806179
    8      F      -3.6621739058     1.2984253198     0.1998231688
    9      F      -4.8278858594    -0.5086241199    -0.0232144047
   10      C      -0.1324171388    -1.3280870919    -0.0961146393
   11      F      -0.4885656622    -2.6253946112    -0.2362851922
   12      C       1.2413863402    -1.0306282110    -0.0251531520
   13      C       2.2212468564    -2.0456298407    -0.0690526308
   14      C       3.5461385039    -1.7335228979     0.0448253788
   15      C       3.9391740156    -0.4005602356     0.2301159240
   16      C       3.0093523705     0.6031388443     0.2627460409
   17      C       1.6357419590     0.3286745751     0.1076954307
   18      H       1.9907172139     4.4313895488    -0.5837147808
   19      H       2.4139106066     2.8244790622    -1.3523365833
   20      H       0.3378196533     3.3584675159     0.8298418887
   21      H      -1.4424370596     1.7550601777     0.1455995670
   22      H      -2.6939419390    -1.8317834011    -0.1891347931
   23      H       1.9003577546    -3.0700020600    -0.1836080376
   24      H       4.2940206024    -2.5113752958     0.0114759223
   25      H       4.9867532817    -0.1696302616     0.3549440008
   26      H       3.3217044886     1.6217721601     0.4308210600
 ----------------------------------------------------------------

    9    -838.3877001617      4.35e-06  Convergence criterion met
 Total energy in the final basis set =     -838.3877001617

                    Orbital Energies (a.u.)
 --------------------------------------------------------------

 Alpha MOs
 -- Occupied --
-24.7469 -24.7362 -24.7163 -10.3596 -10.2740 -10.2136 -10.2058 -10.2048
-10.2043 -10.2013 -10.1955 -10.1950 -10.1930 -10.1922 -10.1914 -10.1894
-10.1845  -1.2881  -1.2269  -1.2264  -0.8901  -0.8456  -0.8162  -0.7901
 -0.7558  -0.7460  -0.7232  -0.6558  -0.6362  -0.6249  -0.6120  -0.5789
 -0.5714  -0.5459  -0.5362  -0.5215  -0.5153  -0.4931  -0.4827  -0.4695
 -0.4677  -0.4495  -0.4432  -0.4416  -0.4367  -0.4299  -0.4224  -0.4093
 -0.3956  -0.3895  -0.3875  -0.3708  -0.3485  -0.3447  -0.3357  -0.3071
 -0.2778  -0.2671  -0.2351  -0.2050

          Ground-State Mulliken Net Atomic Charges

     Atom                 Charge (a.u.)
  ----------------------------------------
      1 C                    -0.334072
      2 C                    -0.143080
      3 C                     0.107551
      4 C                    -0.277819
      5 C                     0.134838
      6 C                    -0.295661
      7 C                     0.547250
      8 F                    -0.234555
      9 F                    -0.245628
     10 C                     0.212123
     11 F                    -0.286514
     12 C                     0.062564
     13 C                    -0.182777
     14 C                    -0.133103
     15 C                    -0.132152
     16 C                    -0.203842
     17 C                     0.091148
     18 H                     0.145629
     19 H                     0.155343
     20 H                     0.141544
     21 H                     0.143166
     22 H                     0.174996
     23 H                     0.143764
     24 H                     0.133058
     25 H                     0.130957
     26 H                     0.145272
  ----------------------------------------
  Sum of atomic charges =     0.000000

                    Cartesian Multipole Moments
 -----------------------------------------------------------------
    Charge (ESU x 10^10)
                 0.0000
    Dipole Moment (Debye)
         X       1.4750      Y       0.6331      Z       0.0725
       Tot       1.6068
    Quadrupole Moments (Debye-Ang)
        XX     -90.1604     XY       0.0966     YY     -88.4065
        XZ      -0.5164     YZ       0.6371     ZZ     -96.1822

 Total job time:  92.00s(wall), 86.94s(cpu)
        *  Thank you very much for using Q-Chem.  Have a nice day.  *
