 Q-Chem 5.2, Q-Chem, Inc., Pleasanton, CA (2019)
 Q-Chem 5.2.1 for Intel X86 EM64T Linux

User input:
--------------------------------------------------------------
$molecule
0 1
C        -2.26681684110000   -3.49564870960000   -0.42785564970000
C        -2.56389026920000   -2.21699097260000   -0.22700845790000
C        -1.62373633410000   -1.11369908690000   -0.09071030550000
C        -2.11176031990000    0.18079013420000    0.09637513070000
C        -1.28435050350000    1.28138786220000    0.23683322440000
C        -1.85427050920000    2.60860658440000    0.47844433220000
C        -2.98852807950000    3.05032374920000   -0.04712679540000
C         0.11757127090000    1.10879884730000    0.17796801820000
N         0.95610262420000    2.17561084600000    0.31836008760000
C         0.60791500240000   -0.19715572210000    0.00439420990000
C         2.08741071920000   -0.42000208520000   -0.05252570860000
F         2.67951751250000    0.26112708920000   -1.06628297290000
F         2.72993132480000   -0.00838357260000    1.06309892680000
F         2.43290899690000   -1.69965706470000   -0.22537610670000
C        -0.24343252010000   -1.28235317150000   -0.12635118160000
H        -3.03925843520000   -4.23981015860000   -0.51662936880000
H        -1.25610530290000   -3.85539978060000   -0.51245052140000
H        -3.60490300220000   -1.92667584410000   -0.15400297840000
H        -3.17957858970000    0.33190065570000    0.15815727210000
H        -1.29788025140000    3.24594451090000    1.15508244910000
H        -3.56481572470000    2.45955976480000   -0.73904164670000
H        -3.37606897940000    4.02750465790000    0.18435030100000
H         0.57186249610000    3.09444614540000    0.19026382510000
H         1.93284890580000    2.07599704070000    0.10790498790000
H         0.18122667340000   -2.26408696230000   -0.25699143540000
$end

$rem
BASIS = 6-31G*
GUI = 2
METHOD = B3LYP
PRINT_ORBITALS false
MOLDEN_FORMAT false
--------------------------------------------------------------

             Standard Nuclear Orientation (Angstroms)
    I     Atom           X                Y                Z
 ----------------------------------------------------------------
    1      C      -1.3843456954    -3.9083716405    -0.0318317537
    2      C      -1.9397512034    -2.7040770362     0.0371396330
    3      C      -1.2476712972    -1.4231948008     0.0463968279
    4      C      -1.9930526931    -0.2441415536     0.1021707442
    5      C      -1.4107989022     1.0114093296     0.1171153724
    6      C      -2.2436242595     2.2112190460     0.2245995370
    7      C      -3.4387844246     2.3530174920    -0.3316060724
    8      C      -0.0027682015     1.1251071723     0.0609096029
    9      N       0.5973075996     2.3500589483     0.0792066981
   10      C       0.7470945876    -0.0632083249     0.0197482619
   11      C       2.2413408243     0.0177163256    -0.0301249755
   12      F       2.6916684179     0.6956670340    -1.1163197523
   13      F       2.7738045886     0.6672298328     1.0288818231
   14      F       2.8440449710    -1.1746689987    -0.0716958359
   15      C       0.1381495024    -1.3076689978     0.0131163338
   16      H      -1.9865416203    -4.8003810155    -0.0333792141
   17      H      -0.3204635575    -4.0598085574    -0.0895950269
   18      H      -3.0189068304    -2.6276422652     0.0910009609
   19      H      -3.0697387663    -0.3098417161     0.1597716853
   20      H      -1.8371518390     3.0166195785     0.8243653633
   21      H      -3.8741306625     1.5872479393    -0.9512239724
   22      H      -4.0211450205     3.2485994984    -0.1995412026
   23      H       0.0339638959     3.1518106082    -0.1402143202
   24      H       1.5758671777     2.4315692108    -0.1306141465
   25      H       0.7567028028    -2.1894788019    -0.0186141956
 ----------------------------------------------------------------

    9    -779.4355872213      4.15e-06  Convergence criterion met
 Total energy in the final basis set =     -779.4355872213

                    Orbital Energies (a.u.)
 --------------------------------------------------------------

 Alpha MOs
 -- Occupied --
-24.7257 -24.7198 -24.7178 -14.3570 -10.4288 -10.2479 -10.2056 -10.1996
-10.1986 -10.1985 -10.1939 -10.1907 -10.1885 -10.1879 -10.1745  -1.3049
 -1.2159  -1.2083  -0.9452  -0.8635  -0.8109  -0.7942  -0.7507  -0.7208
 -0.6943  -0.6470  -0.6291  -0.6029  -0.5841  -0.5783  -0.5473  -0.5462
 -0.5387  -0.5207  -0.4805  -0.4667  -0.4617  -0.4573  -0.4496  -0.4355
 -0.4226  -0.4197  -0.4109  -0.4058  -0.3963  -0.3938  -0.3846  -0.3756
 -0.3495  -0.3435  -0.3397  -0.3037  -0.2728  -0.2445  -0.1978

          Ground-State Mulliken Net Atomic Charges

     Atom                 Charge (a.u.)
  ----------------------------------------
      1 C                    -0.360903
      2 C                    -0.112941
      3 C                     0.185510
      4 C                    -0.274678
      5 C                     0.139562
      6 C                    -0.153718
      7 C                    -0.334188
      8 C                     0.256437
      9 N                    -0.833670
     10 C                    -0.028618
     11 C                     0.782941
     12 F                    -0.279398
     13 F                    -0.273400
     14 F                    -0.262213
     15 C                    -0.252967
     16 H                     0.141806
     17 H                     0.140934
     18 H                     0.124043
     19 H                     0.132913
     20 H                     0.137341
     21 H                     0.148742
     22 H                     0.145658
     23 H                     0.336192
     24 H                     0.345090
     25 H                     0.149526
  ----------------------------------------
  Sum of atomic charges =     0.000000

                    Cartesian Multipole Moments
 -----------------------------------------------------------------
    Charge (ESU x 10^10)
                 0.0000
    Dipole Moment (Debye)
         X      -1.6532      Y       1.8542      Z      -0.5158
       Tot       2.5371
    Quadrupole Moments (Debye-Ang)
        XX     -83.4821     XY      -0.2429     YY     -73.5006
        XZ       0.1371     YZ      -0.9128     ZZ     -89.2861

 Total job time:  41.58s(wall), 41.45s(cpu)
        *  Thank you very much for using Q-Chem.  Have a nice day.  *
