 Q-Chem 5.2, Q-Chem, Inc., Pleasanton, CA (2019)
 Q-Chem 5.2.1 for Intel X86 EM64T Linux

User input:
--------------------------------------------------------------
$molecule
0 1
C         4.77093654620000    0.00095939980000    1.50373167090000
C         3.58712885190000    0.59943906710000    1.50526500580000
C         2.46378200040000    0.27135787350000    0.64694559510000
C         1.15839475980000    0.39720822400000    1.04525309450000
N         0.30957194990000   -0.09014506840000    0.08786031640000
Si       -1.46120300350000   -0.00929572420000    0.10282878720000
C        -1.96177160090000    0.43642908600000    1.90510819670000
C        -3.44981749800000    0.76153532400000    2.01986619960000
C        -1.60678128810000   -0.66539237680000    2.90384654310000
C        -1.93300880540000    1.42460478500000   -1.09627669880000
C        -1.41317144970000    2.76678154880000   -0.57749853970000
C        -1.40860579100000    1.19980800570000   -2.51435079780000
C        -2.26918456320000   -1.69822310990000   -0.36427393880000
C        -3.64019083930000   -1.49952586990000   -1.01375882270000
C        -1.41602443690000   -2.60560191270000   -1.24828656300000
C         1.09772119330000   -0.51499257540000   -0.94691373530000
C         2.42359863120000   -0.31057992150000   -0.66530986530000
C         3.48306826040000   -0.56731912350000   -1.62316661090000
C         4.62336446220000    0.10293468460000   -1.72442864290000
H         5.54336195770000    0.27924424310000    2.20084758600000
H         5.00886327570000   -0.78702675150000    0.81028418560000
H         3.37473941300000    1.36392518110000    2.24458044670000
H         0.78296905720000    0.78963489140000    1.96805869550000
H        -1.41451979970000    1.33728293360000    2.19880507580000
H        -4.05130926190000   -0.11605026630000    1.79599682540000
H        -3.73337050920000    1.55648879300000    1.33514310850000
H        -3.69178922250000    1.08216139580000    3.03234342030000
H        -2.21409857160000   -1.55034479550000    2.72920600860000
H        -1.79461838140000   -0.32889066500000    3.92268993670000
H        -0.56119949910000   -0.95135535340000    2.82508057640000
H        -3.02393978870000    1.48954404030000   -1.15533509470000
H        -0.33025905710000    2.74082239320000   -0.47619741450000
H        -1.84260534630000    3.00739266420000    0.39138602990000
H        -1.66953494970000    3.56643085220000   -1.27081931430000
H        -0.32128749940000    1.19645221510000   -2.51931621750000
H        -1.74650141450000    1.99754785000000   -3.17449958070000
H        -1.75849718680000    0.25441673660000   -2.92138994100000
H        -2.43390875560000   -2.24280178670000    0.57162692520000
H        -3.54309417180000   -1.01180032460000   -1.98020670170000
H        -4.28804965080000   -0.88945678690000   -0.39058131290000
H        -4.12619142990000   -2.46163458060000   -1.17018293360000
H        -1.26227256930000   -2.16073902770000   -2.22867271130000
H        -1.91597838420000   -3.56278558360000   -1.39317251120000
H        -0.44730632370000   -2.79383315560000   -0.79351338750000
H         0.66541275910000   -0.91198034900000   -1.84182057820000
H         3.25180489770000   -1.34220124530000   -2.34589130390000
H         4.87482153570000    0.90279312450000   -1.04959564280000
H         5.34488482750000   -0.12628056100000   -2.49053564790000
$end

$rem
BASIS = 6-31G*
GUI = 2
METHOD = B3LYP
PRINT_ORBITALS false
MOLDEN_FORMAT false
--------------------------------------------------------------

             Standard Nuclear Orientation (Angstroms)
    I     Atom           X                Y                Z
 ----------------------------------------------------------------
    1      C      -4.7560355161    -1.6540554287     0.4681990222
    2      C      -3.5899276118    -1.7312015434    -0.1593531691
    3      C      -2.4961084934    -0.7839541730    -0.0473719904
    4      C      -1.1786706022    -1.1510059147    -0.1376684164
    5      N      -0.3589673524    -0.0851167179     0.1203647755
    6      Si      1.4079643068    -0.0506771203    -0.0180947234
    7      C       1.9734233224    -1.8859478733    -0.1155008933
    8      C       3.4556660450    -2.0083028316    -0.4635380072
    9      C       1.6917933029    -2.6575270249     1.1740172677
   10      C       1.7886218700     0.8552545229    -1.6766823843
   11      C       1.2554019663     0.0606897166    -2.8704760947
   12      C       1.2099160307     2.2693947601    -1.7187918236
   13      C       2.2405849059     0.7729779876     1.5154730361
   14      C       3.5764505907     1.4198906970     1.1440753578
   15      C       1.3750634927     1.7880189949     2.2592883689
   16      C      -1.1791424771     0.9838174391     0.3593721084
   17      C      -2.4967159319     0.6185056134     0.2614756618
   18      C      -3.5891060373     1.5686343799     0.3605697736
   19      C      -4.7504636839     1.4922713890    -0.2759730015
   20      H      -5.5049808922    -2.4205995989     0.3607516950
   21      H      -5.0021510339    -0.8267593073     1.1111679154
   22      H      -3.3667033142    -2.5996727492    -0.7693238989
   23      H      -0.7746274595    -2.1190322993    -0.3525809156
   24      H       1.4150989281    -2.3731835536    -0.9205818258
   25      H       4.0705366468    -1.5920849477     0.3306679630
   26      H       3.6877991904    -1.4857191391    -1.3877779797
   27      H       3.7322378336    -3.0547503226    -0.5856740379
   28      H       2.3148020532    -2.2878347747     1.9849809658
   29      H       1.9141442708    -3.7153649877     1.0394924456
   30      H       0.6519298051    -2.5619233268     1.4752879399
   31      H       2.8738337944     0.9403215479    -1.7903225694
   32      H       0.1789605380    -0.0732147343    -2.7869387067
   33      H       1.7194853995    -0.9202247859    -2.9294489320
   34      H       1.4598831688     0.5897560203    -3.8000626873
   35      H       0.1238842767     2.2348873835    -1.6782794271
   36      H       1.4973042439     2.7693597344    -2.6428057664
   37      H       1.5674618630     2.8692278699    -0.8855867332
   38      H       2.4601762137    -0.0289497504     2.2284260377
   39      H       3.4246253411     2.2655491046     0.4783904289
   40      H       4.2337654523     0.7119488213     0.6470733381
   41      H       4.0811770738     1.7826490378     2.0384890268
   42      H       1.1672186094     2.6537799717     1.6348221500
   43      H       1.8940886456     2.1390110525     3.1506715264
   44      H       0.4322940504     1.3445080720     2.5677494924
   45      H      -0.7751731214     1.9551756401     0.5558921765
   46      H      -3.3682560550     2.4392667931     0.9684188617
   47      H      -4.9942213750     0.6628177485    -0.9170600533
   48      H      -5.4978300134     2.2615879232    -0.1777546261
 ----------------------------------------------------------------

    8   -1009.5114576284      9.86e-06  Convergence criterion met
 Total energy in the final basis set =    -1009.5114576284

                    Orbital Energies (a.u.)
 --------------------------------------------------------------

 Alpha MOs
 -- Occupied --
-66.1417 -14.3562 -10.1959 -10.1950 -10.1828 -10.1803 -10.1801 -10.1801
-10.1776 -10.1768 -10.1760 -10.1754 -10.1753 -10.1742 -10.1733 -10.1680
-10.1675 -10.1584 -10.1582  -5.2847  -3.6453  -3.6428  -3.6422  -0.9656
 -0.8058  -0.7941  -0.7845  -0.7812  -0.7658  -0.7207  -0.7081  -0.6905
 -0.6875  -0.6832  -0.6113  -0.6030  -0.5824  -0.5780  -0.5759  -0.5561
 -0.5186  -0.5027  -0.4791  -0.4672  -0.4626  -0.4516  -0.4481  -0.4401
 -0.4356  -0.4313  -0.4152  -0.4121  -0.4098  -0.4046  -0.4002  -0.3968
 -0.3893  -0.3877  -0.3858  -0.3833  -0.3811  -0.3495  -0.3454  -0.3441
 -0.3409  -0.3402  -0.3395  -0.3361  -0.3350  -0.3252  -0.2964  -0.2729
 -0.2721  -0.2677  -0.1969  -0.1967

          Ground-State Mulliken Net Atomic Charges

     Atom                 Charge (a.u.)
  ----------------------------------------
      1 C                    -0.349393
      2 C                    -0.126838
      3 C                     0.050247
      4 C                    -0.052527
      5 N                    -0.516815
      6 Si                    0.904218
      7 C                    -0.299486
      8 C                    -0.463458
      9 C                    -0.462513
     10 C                    -0.273792
     11 C                    -0.463354
     12 C                    -0.471533
     13 C                    -0.289534
     14 C                    -0.465022
     15 C                    -0.464674
     16 C                    -0.044019
     17 C                     0.046034
     18 C                    -0.127322
     19 C                    -0.349294
     20 H                     0.129915
     21 H                     0.151147
     22 H                     0.117104
     23 H                     0.143886
     24 H                     0.146582
     25 H                     0.149141
     26 H                     0.150691
     27 H                     0.145992
     28 H                     0.146652
     29 H                     0.141549
     30 H                     0.161972
     31 H                     0.138255
     32 H                     0.167060
     33 H                     0.145144
     34 H                     0.140748
     35 H                     0.164451
     36 H                     0.142183
     37 H                     0.143652
     38 H                     0.146472
     39 H                     0.152003
     40 H                     0.152050
     41 H                     0.144950
     42 H                     0.144816
     43 H                     0.140967
     44 H                     0.166721
     45 H                     0.146126
     46 H                     0.117605
     47 H                     0.151187
     48 H                     0.130054
  ----------------------------------------
  Sum of atomic charges =     0.000000

                    Cartesian Multipole Moments
 -----------------------------------------------------------------
    Charge (ESU x 10^10)
                 0.0000
    Dipole Moment (Debye)
         X       3.1098      Y      -0.0133      Z      -0.0453
       Tot       3.1101
    Quadrupole Moments (Debye-Ang)
        XX    -129.1067     XY      -0.3328     YY    -122.5690
        XZ       0.7404     YZ       2.8817     ZZ    -127.3688

 Total job time:  110.50s(wall), 110.18s(cpu)
        *  Thank you very much for using Q-Chem.  Have a nice day.  *
