 Q-Chem 5.4, Q-Chem, Inc., Pleasanton, CA (2021)
 Q-Chem 5.4.2 for Intel X86 EM64T Linux

User input:
--------------------------------------------------------------
$molecule
0 1
C           -1.03373682250000        4.55374785150000       -0.14870224200000
C           -0.06915812310000        3.65584050620000        0.00830576200000
C           -0.22176813280000        2.20411224490000        0.01990859670000
C           -1.46443963570000        1.57509444170000        0.03466416220000
C           -1.58555333660000        0.18554422690000        0.04158796400000
C           -2.92751751700000       -0.37834768100000        0.05646488130000
C           -3.28496307440000       -1.65394168940000        0.03179162100000
F           -2.50651757400000       -2.72334054230000       -0.01262148690000
F           -4.55751164950000       -2.04593226980000        0.04712920370000
C           -0.42766757680000       -0.59014671860000        0.03658315070000
C            0.81962845820000        0.02373497690000        0.02648603600000
C            2.02429043780000       -0.84750893760000        0.02537381060000
O            1.98936778220000       -2.05317912050000        0.05560056510000
O            3.16322380880000       -0.14707398920000       -0.01531467780000
C            4.37050415270000       -0.90961975910000       -0.02437809490000
C            5.53890834260000        0.04542294740000       -0.17805498590000
C            0.92365079670000        1.40881925180000        0.02054018230000
H           -0.81932102990000        5.60847479620000       -0.14764330120000
H           -2.06662399840000        4.28583651430000       -0.29069953340000
H            0.95112834360000        3.99757333050000        0.12993561360000
H           -2.36228727910000        2.17362667700000        0.04778797540000
H           -3.74665146690000        0.32568315970000        0.08838795910000
H           -0.46171087590000       -1.66732854910000        0.04404212070000
H            4.32801013560000       -1.62810241740000       -0.85075111590000
H            4.43704084280000       -1.47537007930000        0.91196367790000
H            5.44936690760000        0.60048526910000       -1.10811786250000
H            6.46900334200000       -0.51514612850000       -0.18724350390000
H            5.55750641590000        0.75109636740000        0.64821255470000
H            1.90087095140000        1.86628048490000        0.01321477410000
$end

$rem
BASIS = 6-31G*
GUI = 2
METHOD = B3LYP
PRINT_ORBITALS false
MOLDEN_FORMAT false
$end
--------------------------------------------------------------

             Standard Nuclear Orientation (Angstroms)
    I     Atom           X                Y                Z
 ----------------------------------------------------------------
    1      C       0.6502411091    -4.5758036935    -0.1047263789
    2      C      -0.2101358845    -3.5775592772     0.0519921439
    3      C       0.0979618289    -2.1506881429     0.0446470277
    4      C       1.4012016157    -1.6591177006     0.0384707700
    5      C       1.6712399086    -0.2907150348     0.0275285726
    6      C       3.0661805146     0.1254142951     0.0211760510
    7      C       3.5585156925     1.3547269893    -0.0225565795
    8      F       2.8992108110     2.5012461021    -0.0712887548
    9      F       4.8659532189     1.6074507089    -0.0256498863
   10      C       0.6035896073     0.6051313665     0.0258013843
   11      C      -0.7025624020     0.1291561103     0.0365051520
   12      C      -1.8063828591     1.1250756510     0.0380373289
   13      O      -1.6415388162     2.3202160762     0.0535177691
   14      O      -3.0144931166     0.5510525346     0.0180133131
   15      C      -4.1327111016     1.4391103078     0.0129187088
   16      C      -5.3988810937     0.6139454384    -0.1167269558
   17      C      -0.9551174315    -1.2366381408     0.0481871731
   18      H       0.3235816736    -5.6012126854    -0.0887829209
   19      H       1.7041794150    -4.4222849208    -0.2610646895
   20      H      -1.2597378670    -3.8060408098     0.1887089521
   21      H       2.2295080284    -2.3507395140     0.0490166568
   22      H       3.8051078478    -0.6624030598     0.0526267595
   23      H       0.7534566596     1.6723905436     0.0200573547
   24      H      -4.0230816353     2.1399629918    -0.8223670729
   25      H      -4.1267000782     2.0187045002     0.9431181020
   26      H      -5.3807968053     0.0425645437    -1.0410243298
   27      H      -6.2632837240     1.2713442219    -0.1225370960
   28      H      -5.4833778049    -0.0767494033     0.7180423861
   29      H      -1.9759135432    -1.5861856043     0.0568786203
 ----------------------------------------------------------------

    9    -852.7132756102      6.98e-06  Convergence criterion met
 Total energy in the final basis set =     -852.7132756102

                    Orbital Energies (a.u.)
 --------------------------------------------------------------

 Alpha MOs
 -- Occupied --
-24.7470 -24.7365 -19.1913 -19.1311 -10.3606 -10.3121 -10.2437 -10.2142
-10.2062 -10.2047 -10.2039 -10.1998 -10.1970 -10.1966 -10.1953 -10.1868
-10.1856  -1.2890  -1.2274  -1.1086  -1.0158  -0.8808  -0.8209  -0.8032
 -0.7778  -0.7517  -0.7348  -0.6716  -0.6503  -0.6301  -0.6164  -0.5891
 -0.5757  -0.5624  -0.5258  -0.5220  -0.5097  -0.4970  -0.4920  -0.4883
 -0.4622  -0.4520  -0.4431  -0.4421  -0.4342  -0.4294  -0.4206  -0.4096
 -0.4058  -0.3980  -0.3901  -0.3785  -0.3646  -0.3626  -0.3548  -0.3448
 -0.3241  -0.3006  -0.2902  -0.2722  -0.2395  -0.2252

          Ground-State Mulliken Net Atomic Charges

     Atom                 Charge (a.u.)
  ----------------------------------------
      1 C                    -0.352616
      2 C                    -0.108849
      3 C                     0.175827
      4 C                    -0.248009
      5 C                     0.197323
      6 C                    -0.300674
      7 C                     0.551291
      8 F                    -0.226488
      9 F                    -0.247247
     10 C                    -0.229850
     11 C                     0.048860
     12 C                     0.604967
     13 O                    -0.489852
     14 O                    -0.471746
     15 C                    -0.033901
     16 C                    -0.462414
     17 C                    -0.239971
     18 H                     0.147962
     19 H                     0.143996
     20 H                     0.131241
     21 H                     0.130567
     22 H                     0.159752
     23 H                     0.169404
     24 H                     0.161103
     25 H                     0.157609
     26 H                     0.161988
     27 H                     0.156099
     28 H                     0.161183
     29 H                     0.152443
  ----------------------------------------
  Sum of atomic charges =     0.000000

                    Cartesian Multipole Moments
 -----------------------------------------------------------------
    Charge (ESU x 10^10)
                 0.0000
    Dipole Moment (Debye)
         X      -1.1883      Y      -2.5997      Z      -0.0262
       Tot       2.8585
    Quadrupole Moments (Debye-Ang)
        XX     -82.3251     XY      -4.2658     YY     -97.0668
        XZ      -0.1585     YZ      -0.1492     ZZ     -97.6445

 Total job time:  89.67s(wall), 79.29s(cpu)
        *  Thank you very much for using Q-Chem.  Have a nice day.  *
