 Q-Chem 5.2, Q-Chem, Inc., Pleasanton, CA (2019)
 Q-Chem 5.2.1 for Intel X86 EM64T Linux

User input:
--------------------------------------------------------------
$molecule
0 1
C        -5.69782587810000    0.58623528440000    0.00766215140000
C        -4.81013593870000   -0.40221027790000   -0.00600618670000
C        -3.36083269980000   -0.27185466710000   -0.00292413720000
C        -2.70083732710000    0.95943524440000    0.00656760340000
C        -1.32590531150000    1.02353148370000    0.00838855510000
C        -0.53856906080000   -0.13458412310000    0.00188992970000
C         0.90144809060000    0.00652302210000    0.00443508850000
C         1.79920236610000   -0.99401825890000    0.01686521480000
C         3.23358078600000   -0.85141364510000    0.01923828690000
C         3.94813916590000    0.26888809620000   -0.00128296790000
F         3.50106709900000    1.51966607480000   -0.02920716600000
F         5.28061607030000    0.28549154650000    0.00294531380000
C        -1.20062799830000   -1.36676396080000   -0.00802592550000
C        -2.57596245450000   -1.42901678110000   -0.01062401000000
H        -6.75566803920000    0.38698324490000    0.00403547580000
H        -5.41572050180000    1.62487986390000    0.02326053700000
H        -5.16806798190000   -1.42490960370000   -0.02068190560000
H        -3.27065710660000    1.87559659790000    0.01182480330000
H        -0.83792420730000    1.98805669150000    0.01542522580000
H         1.25040470240000    1.02957325080000   -0.00288955210000
H         1.46304552330000   -2.02039288750000    0.02775857800000
H         3.81747321280000   -1.75996220020000    0.03919895430000
H        -0.63478520070000   -2.28557791480000   -0.01527771150000
H        -3.06344201400000   -2.39417146230000   -0.01882671970000
$end

$rem
BASIS = 6-31G*
GUI = 2
METHOD = B3LYP
PRINT_ORBITALS false
MOLDEN_FORMAT false
--------------------------------------------------------------

             Standard Nuclear Orientation (Angstroms)
    I     Atom           X                Y                Z
 ----------------------------------------------------------------
    1      C       5.5401030402    -0.7865416066     0.0086674415
    2      C       4.6843122660     0.2296153118    -0.0072117755
    3      C       3.2315953447     0.1454469664    -0.0038652944
    4      C       2.5327573753    -1.0641955891     0.0083499305
    5      C       1.1564821997    -1.0845074277     0.0102894300
    6      C       0.4063932595     0.0980560646     0.0012047753
    7      C      -1.0373843978     0.0028449971     0.0040384093
    8      C      -1.9028481572     1.0314696632     0.0142305509
    9      C      -3.3410375938     0.9345820930     0.0168955225
   10      C      -4.0908811154    -0.1624593176    -0.0011496462
   11      F      -3.6838342500    -1.4268879111    -0.0262878029
   12      F      -5.4232114182    -0.1366480270     0.0030924219
   13      C       1.1073220420     1.3085214930    -0.0114365040
   14      C       2.4839407589     1.3269763199    -0.0141490328
   15      H       6.6037492127    -0.6210575422     0.0046165215
   16      H       5.2250936617    -1.8156470333     0.0265679388
   17      H       5.0746026204     1.2403729848    -0.0241528772
   18      H       3.0731384306    -1.9980097248     0.0156519659
   19      H       0.6380592121    -2.0329996286     0.0194600331
   20      H      -1.4187162044    -1.0085978361    -0.0010198593
   21      H      -1.5342036724     2.0466503943     0.0228499275
   22      H      -3.8957250501     1.8612910683     0.0348279579
   23      H       0.5710002491     2.2448559103    -0.0207389436
   24      H       3.0018824221     2.2761110428    -0.0244870790
 ----------------------------------------------------------------

    9    -662.9180614745      7.46e-06  Convergence criterion met
 Total energy in the final basis set =     -662.9180614745

                    Orbital Energies (a.u.)
 --------------------------------------------------------------

 Alpha MOs
 -- Occupied --
-24.7453 -24.7353 -10.3570 -10.2042 -10.1994 -10.1963 -10.1947 -10.1902
-10.1901 -10.1882 -10.1877 -10.1874 -10.1868 -10.1798  -1.2856  -1.2251
 -0.8679  -0.8277  -0.7985  -0.7575  -0.7506  -0.7132  -0.6554  -0.6281
 -0.6060  -0.5885  -0.5746  -0.5606  -0.5192  -0.5185  -0.4965  -0.4817
 -0.4584  -0.4502  -0.4449  -0.4416  -0.4313  -0.4195  -0.4177  -0.3988
 -0.3851  -0.3836  -0.3600  -0.3465  -0.3365  -0.3352  -0.3008  -0.2548
 -0.2484  -0.1977

          Ground-State Mulliken Net Atomic Charges

     Atom                 Charge (a.u.)
  ----------------------------------------
      1 C                    -0.352833
      2 C                    -0.114203
      3 C                     0.180435
      4 C                    -0.184520
      5 C                    -0.200864
      6 C                     0.188491
      7 C                    -0.197688
      8 C                    -0.120004
      9 C                    -0.242852
     10 C                     0.551751
     11 F                    -0.234062
     12 F                    -0.247991
     13 C                    -0.180511
     14 C                    -0.200669
     15 H                     0.144487
     16 H                     0.142863
     17 H                     0.126514
     18 H                     0.127875
     19 H                     0.129517
     20 H                     0.136486
     21 H                     0.134335
     22 H                     0.159201
     23 H                     0.126375
     24 H                     0.127866
  ----------------------------------------
  Sum of atomic charges =     0.000000

                    Cartesian Multipole Moments
 -----------------------------------------------------------------
    Charge (ESU x 10^10)
                -0.0000
    Dipole Moment (Debye)
         X       0.5234      Y       0.8695      Z       0.0132
       Tot       1.0149
    Quadrupole Moments (Debye-Ang)
        XX     -78.0947     XY      -3.0922     YY     -71.3215
        XZ      -0.0720     YZ      -0.0702     ZZ     -83.6853

 Total job time:  30.18s(wall), 30.07s(cpu)
        *  Thank you very much for using Q-Chem.  Have a nice day.  *
