 Q-Chem 5.2, Q-Chem, Inc., Pleasanton, CA (2019)
 Q-Chem 5.2.1 for Intel X86 EM64T Linux

User input:
--------------------------------------------------------------
$molecule
0 1
C        -3.64031011510000    0.48848190620000    0.00673352400000
C        -2.92251716200000   -0.57696349470000   -0.32539579020000
C        -1.48395664120000   -0.72438391920000   -0.17570603240000
C        -0.89671969390000   -1.95473417980000   -0.02360461120000
S         0.79413426260000   -1.88818457410000    0.17937418750000
C         0.76359960720000   -0.16105337510000    0.03678389070000
C         2.09926864620000    0.45376455810000    0.03021791620000
O         3.08181491920000   -0.19411749790000    0.28387552970000
O         2.19388164820000    1.75007553720000   -0.30390325130000
C        -0.51603871110000    0.32681878710000   -0.14120725870000
C        -0.88017024730000    1.73165248150000   -0.32065308650000
C        -0.52129153620000    2.72189665270000    0.48915012100000
H        -4.70780639430000    0.50449419350000   -0.13065501150000
H        -3.20134991060000    1.36767524650000    0.44536955530000
H        -3.41984455670000   -1.45671600230000   -0.71423235810000
H        -1.39913907770000   -2.90231109530000   -0.00460273510000
H         1.32606853390000    2.16228922060000   -0.45211214700000
H        -1.52113663130000    1.92518256940000   -1.17315898150000
H         0.06331771970000    2.55007683760000    1.37913990180000
H        -0.83424043370000    3.73668785280000    0.31145972930000
$end

$rem
BASIS = 6-31G*
GUI = 2
METHOD = B3LYP
PRINT_ORBITALS false
MOLDEN_FORMAT false
--------------------------------------------------------------

             Standard Nuclear Orientation (Angstroms)
    I     Atom           X                Y                Z
 ----------------------------------------------------------------
    1      C       3.5503261938    -0.5487026353     0.1613556641
    2      C       2.8783214434     0.5355094809    -0.2041634321
    3      C       1.4395731440     0.7248431299    -0.1161164128
    4      C       0.8822141486     1.9721955338     0.0071993157
    5      S      -0.8169340637     1.9551259031     0.1384255530
    6      C      -0.8303007607     0.2272404495     0.0024853927
    7      C      -2.1816986625    -0.3489630578    -0.0589085305
    8      O      -3.1549754435     0.3279582376     0.1508541676
    9      O      -2.2994920027    -1.6434272914    -0.3928214028
   10      C       0.4410965574    -0.2979545578    -0.1195530662
   11      C       0.7717602186    -1.7134215719    -0.2791305238
   12      C       0.3504560649    -2.6894951639     0.5177018524
   13      H       4.6217737243    -0.5959681540     0.0694509887
   14      H       3.0679698525    -1.4130475168     0.5836219835
   15      H       3.4168758327     1.3989475318    -0.5741996339
   16      H       1.4105449931     2.9050153462     0.0446430832
   17      H      -1.4384536658    -2.0810347090    -0.5028138085
   18      H       1.4423888012    -1.9289103504    -1.1030722644
   19      H      -0.2661038212    -2.4971678060     1.3815513388
   20      H       0.6411987861    -3.7136060046     0.3565257885
 ----------------------------------------------------------------

    9    -896.3605400269      9.77e-06  Convergence criterion met
 Total energy in the final basis set =     -896.3605400269

                    Orbital Energies (a.u.)
 --------------------------------------------------------------

 Alpha MOs
 -- Occupied --
-88.9247 -19.1849 -19.1279 -10.3210 -10.2349 -10.2291 -10.2281 -10.2273
-10.2159 -10.2137 -10.2079 -10.1934  -7.9855  -5.9494  -5.9456  -5.9430
 -1.0985  -1.0166  -0.9107  -0.8247  -0.8078  -0.7478  -0.7372  -0.6550
 -0.6230  -0.6084  -0.5940  -0.5560  -0.5255  -0.4879  -0.4730  -0.4615
 -0.4486  -0.4457  -0.4282  -0.4230  -0.3998  -0.3897  -0.3812  -0.3699
 -0.3560  -0.3177  -0.3108  -0.3046  -0.2741  -0.2553  -0.2361

          Ground-State Mulliken Net Atomic Charges

     Atom                 Charge (a.u.)
  ----------------------------------------
      1 C                    -0.357458
      2 C                    -0.114260
      3 C                     0.138476
      4 C                    -0.403797
      5 S                     0.336665
      6 C                    -0.317140
      7 C                     0.609768
      8 O                    -0.454746
      9 O                    -0.592317
     10 C                     0.140288
     11 C                    -0.189560
     12 C                    -0.356479
     13 H                     0.149346
     14 H                     0.159242
     15 H                     0.138205
     16 H                     0.179361
     17 H                     0.412706
     18 H                     0.173497
     19 H                     0.181918
     20 H                     0.166285
  ----------------------------------------
  Sum of atomic charges =     0.000000

                    Cartesian Multipole Moments
 -----------------------------------------------------------------
    Charge (ESU x 10^10)
                 0.0000
    Dipole Moment (Debye)
         X       5.4041      Y      -1.0800      Z      -0.3538
       Tot       5.5223
    Quadrupole Moments (Debye-Ang)
        XX     -88.4131     XY       0.9707     YY     -65.7282
        XZ      -1.1193     YZ      -0.8948     ZZ     -76.4994

 Total job time:  28.59s(wall), 28.42s(cpu)
        *  Thank you very much for using Q-Chem.  Have a nice day.  *
