 Q-Chem 5.2, Q-Chem, Inc., Pleasanton, CA (2019)
 Q-Chem 5.2.1 for Intel X86 EM64T Linux

User input:
--------------------------------------------------------------
$molecule
0 1
C         3.22211606690000   -1.51270336230000    0.84706042500000
C         2.22550938580000   -1.63297131960000   -0.01987274340000
C         1.07136979800000   -0.73537349110000   -0.07733966710000
C        -0.18734157250000   -1.32712065650000   -0.22142611450000
C        -1.35999089440000   -0.59999888730000   -0.13976249830000
O        -2.60752605040000   -1.14472534950000   -0.25722597480000
C        -2.72277199120000   -2.52535895480000   -0.48890174410000
C        -1.29814888160000    0.79115997740000    0.09613781210000
C        -2.53481802930000    1.55210615440000    0.20897284960000
C        -2.65119304640000    2.79483718870000    0.66211418720000
C        -0.04522227050000    1.38139449680000    0.17067065490000
C         1.13592864300000    0.65461456150000    0.07134443240000
O         2.29102832540000    1.39817661850000    0.11570056190000
C         3.32136696600000    1.09490035240000   -0.79871061230000
H         4.02820246600000   -2.22597179140000    0.88692213840000
H         3.25394976860000   -0.70735570160000    1.56218743620000
H         2.18900466550000   -2.48685804050000   -0.68645538220000
H        -0.21549495640000   -2.39688881710000   -0.36303492450000
H        -3.79173500710000   -2.72302811260000   -0.55682194880000
H        -2.30069206810000   -3.11001323500000    0.33524542020000
H        -2.24187290800000   -2.81964169730000   -1.42779343580000
H        -3.41920370390000    1.01058867830000   -0.09657733450000
H        -1.80904280960000    3.37039682150000    1.00642568620000
H        -3.60950858440000    3.28251333050000    0.71383770200000
H         0.04235147670000    2.44851952270000    0.29518907610000
H         3.76848669750000    2.04843857890000   -1.08524536640000
H         2.93349041340000    0.59469088170000   -1.68935087450000
H         4.08919796450000    0.46012868410000   -0.34559996940000
$end

$rem
BASIS = 6-31G*
GUI = 2
METHOD = B3LYP
PRINT_ORBITALS false
MOLDEN_FORMAT false
--------------------------------------------------------------

             Standard Nuclear Orientation (Angstroms)
    I     Atom           X                Y                Z
 ----------------------------------------------------------------
    1      C       3.2564638306     1.2988686843    -0.9846104095
    2      C       2.2663284394     1.5333572158    -0.1337817473
    3      C       1.0817440335     0.6856781017     0.0048631301
    4      C      -0.1553156962     1.3317140334     0.0920452756
    5      C      -1.3527309610     0.6414728969     0.0763831329
    6      O      -2.5803102265     1.2378693038     0.1414140876
    7      C      -2.6469584591     2.6371738256     0.2444155900
    8      C      -1.3398288691    -0.7668343221    -0.0299215746
    9      C      -2.6024632053    -1.4913823755    -0.0735800444
   10      C      -2.7629209818    -2.7658402129    -0.4101378595
   11      C      -0.1083631821    -1.4047392109    -0.0479947607
   12      C       1.0975707581    -0.7135031854    -0.0147029856
   13      O       2.2259878844    -1.4977897798     0.0113085901
   14      C       3.2680295327    -1.1474487897     0.8951255379
   15      H       4.0868217281     1.9768759084    -1.0891477576
   16      H       3.2588494495     0.4302943162    -1.6222449108
   17      H       2.2608710923     2.4459126525     0.4510261985
   18      H      -0.1459242081     2.4103172611     0.1341933787
   19      H      -3.7082560577     2.8774083211     0.2924049001
   20      H      -2.2063691406     3.1281405217    -0.6296687269
   21      H      -2.1542879246     2.9999764632     1.1527293354
   22      H      -3.4668619174    -0.8934642713     0.1794988377
   23      H      -1.9419924694    -3.3997422155    -0.6987222478
   24      H      -3.7377364496    -3.2225103920    -0.4178295975
   25      H      -0.0582453606    -2.4812047350    -0.0732929555
   26      H       3.6822251566    -2.0854479537     1.2690946843
   27      H       2.8995309324    -0.5539016825     1.7352495909
   28      H       4.0566224694    -0.5843903531     0.3863081394
 ----------------------------------------------------------------

    9    -616.0768554827      2.73e-06  Convergence criterion met
 Total energy in the final basis set =     -616.0768554827

                    Orbital Energies (a.u.)
 --------------------------------------------------------------

 Alpha MOs
 -- Occupied --
-19.1768 -19.1622 -10.2408 -10.2400 -10.2351 -10.2250 -10.1937 -10.1915
-10.1891 -10.1839 -10.1792 -10.1790 -10.1781 -10.1708  -1.0668  -1.0503
 -0.8590  -0.8060  -0.7656  -0.7559  -0.7237  -0.7038  -0.6696  -0.6325
 -0.6020  -0.5643  -0.5570  -0.5185  -0.5095  -0.4973  -0.4727  -0.4700
 -0.4524  -0.4476  -0.4423  -0.4313  -0.4190  -0.4079  -0.4064  -0.3826
 -0.3695  -0.3600  -0.3523  -0.3407  -0.3282  -0.3176  -0.3013  -0.2783
 -0.2589  -0.2213  -0.1956

          Ground-State Mulliken Net Atomic Charges

     Atom                 Charge (a.u.)
  ----------------------------------------
      1 C                    -0.338654
      2 C                    -0.143393
      3 C                     0.130721
      4 C                    -0.273762
      5 C                     0.322842
      6 O                    -0.512946
      7 C                    -0.211642
      8 C                     0.119192
      9 C                    -0.103749
     10 C                    -0.349003
     11 C                    -0.260294
     12 C                     0.299619
     13 O                    -0.523007
     14 C                    -0.204544
     15 H                     0.141141
     16 H                     0.162070
     17 H                     0.131878
     18 H                     0.128741
     19 H                     0.168432
     20 H                     0.151715
     21 H                     0.149038
     22 H                     0.148236
     23 H                     0.141265
     24 H                     0.140648
     25 H                     0.135639
     26 H                     0.152676
     27 H                     0.145296
     28 H                     0.151849
  ----------------------------------------
  Sum of atomic charges =     0.000000

                    Cartesian Multipole Moments
 -----------------------------------------------------------------
    Charge (ESU x 10^10)
                 0.0000
    Dipole Moment (Debye)
         X       0.5808      Y       2.1906      Z       0.9351
       Tot       2.4516
    Quadrupole Moments (Debye-Ang)
        XX     -75.4536     XY      -2.1074     YY     -74.4993
        XZ       1.2997     YZ       0.7996     ZZ     -84.3751

 Total job time:  41.84s(wall), 41.70s(cpu)
        *  Thank you very much for using Q-Chem.  Have a nice day.  *
