 Q-Chem 5.2, Q-Chem, Inc., Pleasanton, CA (2019)
 Q-Chem 5.2.1 for Intel X86 EM64T Linux

User input:
--------------------------------------------------------------
$molecule
0 1
C         3.99814673370000   -0.46334578550000    0.08952098390000
C         2.98232960290000    0.39133187030000    0.12387219300000
C         1.56697612700000    0.06880095400000    0.00535919750000
C         1.09096226180000   -1.22376224910000   -0.22077787950000
C        -0.26163608880000   -1.45499176170000   -0.32270316830000
C        -1.20058966150000   -0.42953162090000   -0.18130532560000
C        -2.61316493930000   -0.80141595300000   -0.27188167770000
C        -3.60230357060000   -0.33670685180000    0.47877043460000
C        -0.73740856950000    0.87730494520000    0.01903440950000
C        -1.65745859070000    2.05888978270000    0.10346175350000
C         0.62940060610000    1.09508391320000    0.10511420050000
H         5.01613798040000   -0.12699304990000    0.18797984740000
H         3.86419946490000   -1.52412028360000   -0.03516086900000
H         3.19219973470000    1.44621868730000    0.25731873000000
H         1.77969694900000   -2.04738064030000   -0.32564403740000
H        -0.61699887210000   -2.46096226450000   -0.49949940480000
H        -2.82480757430000   -1.57860499880000   -0.99788470270000
H        -3.44621468190000    0.39017358190000    1.25626477160000
H        -4.61112437450000   -0.69586464040000    0.36077905650000
H        -2.56915774530000    1.88756109600000   -0.46365842070000
H        -1.16146427220000    2.94728413970000   -0.28301863550000
H        -1.93124561340000    2.25745036130000    1.13984619930000
H         0.98196610070000    2.10719738340000    0.25514837340000
$end

$rem
BASIS = 6-31G*
GUI = 2
METHOD = B3LYP
PRINT_ORBITALS false
MOLDEN_FORMAT false
--------------------------------------------------------------

             Standard Nuclear Orientation (Angstroms)
    I     Atom           X                Y                Z
 ----------------------------------------------------------------
    1      C       4.0295543495    -0.2759216433     0.1666619246
    2      C       2.9751651229     0.5274533847     0.0867227778
    3      C       1.5776054829     0.1262416195     0.0021464443
    4      C       1.1641934330    -1.2055064128    -0.0609761897
    5      C      -0.1750728601    -1.5111994426    -0.1403217488
    6      C      -1.1617733490    -0.5214557513    -0.1352985415
    7      C      -2.5546087681    -0.9679092177    -0.1858924635
    8      C      -3.5726489620    -0.4591722639     0.4942613792
    9      C      -0.7615395216     0.8205711871    -0.0996457155
   10      C      -1.7358849319     1.9587049076    -0.1708173515
   11      C       0.5927226878     1.1116034973    -0.0342332209
   12      H       5.0297936303     0.1177391540     0.2273747468
   13      H       3.9459934168    -1.3490696796     0.1767035251
   14      H       3.1347335405     1.5994503696     0.0865454014
   15      H       1.8912504884    -2.0024190671    -0.0567460132
   16      H      -0.4817219752    -2.5470561124    -0.1901569702
   17      H      -2.7219066999    -1.8397041509    -0.8086932396
   18      H      -3.4591201491     0.3666639228     1.1742041353
   19      H      -4.5624542659    -0.8774660989     0.4171159014
   20      H      -2.6321523635     1.6743460166    -0.7167283987
   21      H      -1.2768736024     2.8135060296    -0.6640167329
   22      H      -2.0304210341     2.2735168023     0.8304919475
   23      H       0.8966029142     2.1500336267    -0.0117380705
 ----------------------------------------------------------------

    8    -426.3587197267      5.32e-06  Convergence criterion met
 Total energy in the final basis set =     -426.3587197267

                    Orbital Energies (a.u.)
 --------------------------------------------------------------

 Alpha MOs
 -- Occupied --
-10.1920 -10.1902 -10.1898 -10.1888 -10.1873 -10.1832 -10.1811 -10.1800
-10.1790 -10.1771 -10.1752  -0.8661  -0.8074  -0.7704  -0.7622  -0.7171
 -0.6852  -0.6252  -0.6000  -0.5722  -0.5391  -0.4969  -0.4877  -0.4564
 -0.4429  -0.4303  -0.4204  -0.4145  -0.4033  -0.3894  -0.3796  -0.3644
 -0.3538  -0.3342  -0.3305  -0.3056  -0.2657  -0.2424  -0.2104

          Ground-State Mulliken Net Atomic Charges

     Atom                 Charge (a.u.)
  ----------------------------------------
      1 C                    -0.354463
      2 C                    -0.112743
      3 C                     0.190967
      4 C                    -0.186519
      5 C                    -0.186649
      6 C                     0.103176
      7 C                    -0.139985
      8 C                    -0.335621
      9 C                     0.135174
     10 C                    -0.535696
     11 C                    -0.266316
     12 H                     0.143092
     13 H                     0.142061
     14 H                     0.125651
     15 H                     0.124457
     16 H                     0.125776
     17 H                     0.134281
     18 H                     0.147958
     19 H                     0.142225
     20 H                     0.168815
     21 H                     0.153585
     22 H                     0.161789
     23 H                     0.118986
  ----------------------------------------
  Sum of atomic charges =     0.000000

                    Cartesian Multipole Moments
 -----------------------------------------------------------------
    Charge (ESU x 10^10)
                 0.0000
    Dipole Moment (Debye)
         X      -0.3255      Y       0.1316      Z      -0.0108
       Tot       0.3513
    Quadrupole Moments (Debye-Ang)
        XX     -60.5631     XY       0.1730     YY     -60.0738
        XZ      -0.0123     YZ       1.2948     ZZ     -69.0560

 Total job time:  22.76s(wall), 22.68s(cpu)
        *  Thank you very much for using Q-Chem.  Have a nice day.  *
