 Q-Chem 5.2, Q-Chem, Inc., Pleasanton, CA (2019)
 Q-Chem 5.2.1 for Intel X86 EM64T Linux

User input:
--------------------------------------------------------------
$molecule
0 1
C         3.39307241150000    0.80603296170000   -0.23930196900000
C         2.62126152070000   -0.08838181750000    0.36617599420000
C         1.18370393440000   -0.27958717820000    0.16831025200000
C         0.70983408230000   -1.58881546410000    0.16965790810000
C        -0.62421838640000   -1.83838125800000   -0.06719803750000
F        -1.06452291010000   -3.11999933930000   -0.09990219960000
C        -1.52423699740000   -0.81122398360000   -0.26625213650000
C        -1.08895411250000    0.50555381960000   -0.19580129790000
C        -2.10389271370000    1.56198077250000   -0.33354996010000
C        -2.29571276920000    2.56011007220000    0.51682271430000
C         0.27735227720000    0.78742782420000    0.00001082740000
N         0.72749084550000    2.08631807100000   -0.03703687690000
H         4.45219514140000    0.84869198750000   -0.04705263970000
H         3.01418283660000    1.48977886170000   -0.97951803270000
H         3.07625742240000   -0.80181081250000    1.04381125460000
H         1.38994334190000   -2.41227168440000    0.32318939970000
H        -2.56588109740000   -1.03315321250000   -0.43874553080000
H        -2.76882830890000    1.44899446370000   -1.18136519050000
H        -1.70169199090000    2.67982141540000    1.40945636010000
H        -3.08205609080000    3.28165526370000    0.37320526880000
H         0.01942976900000    2.79873789760000    0.02919740520000
H         1.58935280250000    2.27422916410000    0.44901747420000
$end

$rem
BASIS = 6-31G*
GUI = 2
METHOD = B3LYP
PRINT_ORBITALS false
MOLDEN_FORMAT false
--------------------------------------------------------------

             Standard Nuclear Orientation (Angstroms)
    I     Atom           X                Y                Z
 ----------------------------------------------------------------
    1      C       3.1021471122    -1.4771764601     0.3489089427
    2      C       2.5694137295    -0.4490345639    -0.3002388038
    3      C       1.2120721787     0.0756577708    -0.1433821048
    4      C       1.0546536863     1.4581860603    -0.1930621264
    5      C      -0.1891758638     2.0169877591     0.0036826968
    6      F      -0.3209457897     3.3660325403    -0.0103674679
    7      C      -1.3061103273     1.2327858347     0.2090916712
    8      C      -1.1867107938    -0.1505296443     0.1862809197
    9      C      -2.4211250212    -0.9386507463     0.3284062474
   10      C      -2.8241000141    -1.8928710194    -0.4981925328
   11      C       0.0802801516    -0.7468496591     0.0322520983
   12      N       0.2163864979    -2.1126649456     0.1167316930
   13      H       4.1257499029    -1.7697769569     0.1841581306
   14      H       2.5621590273    -2.0300789783     1.0983735918
   15      H       3.1892044249     0.1172018945    -0.9861159900
   16      H       1.9096893799     2.0966414458    -0.3527159836
   17      H      -2.2708156067     1.6950123253     0.3495173814
   18      H      -3.0565501599    -0.6471815551     1.1560393305
   19      H      -2.2584189701    -2.1759653800    -1.3721770039
   20      H      -3.7586653549    -2.4080047945    -0.3539217076
   21      H      -0.6362402289    -2.6439298227     0.0529761236
   22      H       1.0196251804    -2.5105884130    -0.3424305627
 ----------------------------------------------------------------

    8    -541.6227320284      9.85e-06  Convergence criterion met
 Total energy in the final basis set =     -541.6227320284

                    Orbital Energies (a.u.)
 --------------------------------------------------------------

 Alpha MOs
 -- Occupied --
-24.6885 -14.3334 -10.2523 -10.2292 -10.2000 -10.1948 -10.1941 -10.1935
-10.1879 -10.1871 -10.1862 -10.1805  -1.1986  -0.9266  -0.8484  -0.8102
 -0.7764  -0.7314  -0.7174  -0.6331  -0.6265  -0.5750  -0.5712  -0.5200
 -0.5144  -0.5062  -0.4741  -0.4705  -0.4541  -0.4433  -0.4350  -0.4255
 -0.3980  -0.3940  -0.3791  -0.3673  -0.3651  -0.3329  -0.3039  -0.3003
 -0.2746  -0.2315  -0.1897

          Ground-State Mulliken Net Atomic Charges

     Atom                 Charge (a.u.)
  ----------------------------------------
      1 C                    -0.361526
      2 C                    -0.143677
      3 C                     0.134472
      4 C                    -0.276175
      5 C                     0.379016
      6 F                    -0.310364
      7 C                    -0.265022
      8 C                     0.117324
      9 C                    -0.143612
     10 C                    -0.345785
     11 C                     0.216216
     12 N                    -0.822134
     13 H                     0.142768
     14 H                     0.168356
     15 H                     0.137729
     16 H                     0.139029
     17 H                     0.139412
     18 H                     0.146854
     19 H                     0.149334
     20 H                     0.148383
     21 H                     0.326095
     22 H                     0.323309
  ----------------------------------------
  Sum of atomic charges =     0.000000

                    Cartesian Multipole Moments
 -----------------------------------------------------------------
    Charge (ESU x 10^10)
                 0.0000
    Dipole Moment (Debye)
         X      -0.1282      Y      -2.5657      Z      -0.6907
       Tot       2.6602
    Quadrupole Moments (Debye-Ang)
        XX     -61.4405     XY       1.5981     YY     -69.0050
        XZ      -2.8142     YZ       1.7957     ZZ     -70.7897

 Total job time:  24.89s(wall), 24.68s(cpu)
        *  Thank you very much for using Q-Chem.  Have a nice day.  *
