 Q-Chem 5.4, Q-Chem, Inc., Pleasanton, CA (2021)
 Q-Chem 5.4.2 for Intel X86 EM64T Linux

User input:
--------------------------------------------------------------
$molecule
0 1
C            1.27074530650000       -2.82441054890000       -0.45249512620000
C            1.90419284280000       -1.84659582080000        0.18155688410000
C            1.51675463780000       -0.44296688200000        0.16477012760000
C            2.43771754360000        0.56320454860000        0.13946032350000
S            1.72570113320000        2.12110727480000        0.04679848510000
C            0.15713310200000        1.43768149570000        0.07008836900000
C            0.17520930160000        0.07155048400000        0.13848542590000
C           -0.99723992390000       -0.76895608720000        0.26819529250000
C           -2.24123380720000       -0.42360649140000       -0.02524328460000
F           -2.65262101120000        0.73711206630000       -0.52721525720000
F           -3.29029219940000       -1.22795566990000        0.13601907690000
H            1.62579274610000       -3.83984063940000       -0.41049263270000
H            0.39770465360000       -2.64864657920000       -1.05790487660000
H            2.81476683630000       -2.05994749670000        0.72737301470000
H            3.50566870420000        0.46942484030000        0.14091693910000
H           -0.69635453860000        2.08477813380000        0.05538954080000
H           -0.84724116320000       -1.76615063090000        0.65245979590000
$end

$rem
BASIS = 6-31G*
GUI = 2
METHOD = B3LYP
PRINT_ORBITALS false
MOLDEN_FORMAT false
$end
--------------------------------------------------------------

             Standard Nuclear Orientation (Angstroms)
    I     Atom           X                Y                Z
 ----------------------------------------------------------------
    1      C      -0.4231993303    -2.9997062252     0.4625025800
    2      C      -1.3095174523    -2.2172927428    -0.1388863995
    3      C      -1.2975028639    -0.7612665210    -0.1186961339
    4      C      -2.4456695373    -0.0275340574    -0.0512856764
    5      S      -2.1575027863     1.6612509118     0.0357760295
    6      C      -0.4674317720     1.4067418455    -0.0473141906
    7      C      -0.1343478504     0.0825847914    -0.1308728212
    8      C       1.2101615230    -0.4258139559    -0.3090255388
    9      C       2.3321804844     0.2286991979    -0.0529409719
   10      F       2.4470309535     1.4550005773     0.4485340121
   11      F       3.5471217748    -0.2765965458    -0.2581251152
   12      H      -0.5051119525    -4.0722964636     0.4205303848
   13      H       0.3954103825    -2.6057499096     1.0406811684
   14      H      -2.1525689187    -2.6574197742    -0.6567006565
   15      H      -3.4525162590    -0.3942766800    -0.0184837761
   16      H       0.1898863800     2.2524884183    -0.0533845167
   17      H       1.3095311848    -1.4268704593    -0.6996242356
 ----------------------------------------------------------------

    9    -906.2669600520      4.59e-06  Convergence criterion met
 Total energy in the final basis set =     -906.2669600520

                    Orbital Energies (a.u.)
 --------------------------------------------------------------

 Alpha MOs
 -- Occupied --
-88.9122 -24.7413 -24.7332 -10.3538 -10.2129 -10.2109 -10.2074 -10.2014
-10.2014 -10.1991 -10.1853  -7.9740  -5.9379  -5.9341  -5.9315  -1.2824
 -1.2226  -0.8954  -0.8096  -0.7958  -0.7236  -0.7211  -0.6382  -0.6031
 -0.5852  -0.5751  -0.5430  -0.5174  -0.5166  -0.4819  -0.4519  -0.4423
 -0.4393  -0.4282  -0.4132  -0.4034  -0.3962  -0.3857  -0.3632  -0.3475
 -0.3000  -0.2967  -0.2277  -0.2177

          Ground-State Mulliken Net Atomic Charges

     Atom                 Charge (a.u.)
  ----------------------------------------
      1 C                    -0.347692
      2 C                    -0.119821
      3 C                     0.128125
      4 C                    -0.407774
      5 S                     0.275336
      6 C                    -0.418770
      7 C                     0.164060
      8 C                    -0.298097
      9 C                     0.545070
     10 F                    -0.240252
     11 F                    -0.248442
     12 H                     0.146133
     13 H                     0.157121
     14 H                     0.138274
     15 H                     0.173384
     16 H                     0.179499
     17 H                     0.173846
  ----------------------------------------
  Sum of atomic charges =     0.000000

                    Cartesian Multipole Moments
 -----------------------------------------------------------------
    Charge (ESU x 10^10)
                 0.0000
    Dipole Moment (Debye)
         X      -0.9558      Y      -0.8826      Z      -0.2351
       Tot       1.3221
    Quadrupole Moments (Debye-Ang)
        XX     -67.6507     XY       1.5758     YY     -63.9202
        XZ       0.7721     YZ       0.1448     ZZ     -70.6138

 Total job time:  29.49s(wall), 28.99s(cpu)
        *  Thank you very much for using Q-Chem.  Have a nice day.  *
