 Q-Chem 5.2, Q-Chem, Inc., Pleasanton, CA (2019)
 Q-Chem 5.2.1 for Intel X86 EM64T Linux

User input:
--------------------------------------------------------------
$molecule
0 1
C        -3.13711553160000   -2.02580618550000   -0.63536161390000
C        -1.99593248910000   -2.09499055740000    0.03899377920000
C        -0.97380532940000   -1.04807265120000    0.05103749220000
C         0.36561167510000   -1.42660322060000    0.06031191530000
C         1.39646677170000   -0.50226669260000   -0.03757149730000
C         2.78399144590000   -1.05492257830000    0.05350935920000
O         3.06512787290000   -2.15710971880000   -0.32677723590000
O         3.70662940280000   -0.27247749370000    0.63927758270000
C         1.10267517680000    0.86260432710000   -0.19710235510000
C         2.14163938400000    1.86863621120000   -0.43960086300000
C         2.11165857870000    3.10375506060000    0.04429670940000
C        -0.23545593350000    1.24388163540000   -0.17432321250000
C        -1.26330700630000    0.32436422270000   -0.01856334200000
C        -2.64042686170000    0.89871047290000    0.10531706920000
O        -3.03289673710000    1.80616175290000   -0.57179205550000
O        -3.39848110220000    0.39486314800000    1.09684226190000
H        -3.83386073470000   -2.84582239910000   -0.64633029530000
H        -3.41127179250000   -1.15861032110000   -1.21384711170000
H        -1.72751920350000   -3.00519989570000    0.56031819250000
H         0.62981991650000   -2.47156716070000    0.13191450230000
H         3.35550568250000    0.59201994400000    0.89937636420000
H         2.95928474010000    1.55822669150000   -1.07948445950000
H         1.32292342010000    3.44408679210000    0.69457180070000
H         2.88476965920000    3.81651225780000   -0.18399881310000
H        -0.49722868270000    2.28426769500000   -0.29471502450000
H        -2.98620445120000   -0.36478459650000    1.53006369350000
$end

$rem
BASIS = 6-31G*
GUI = 2
METHOD = B3LYP
PRINT_ORBITALS false
MOLDEN_FORMAT false
--------------------------------------------------------------

             Standard Nuclear Orientation (Angstroms)
    I     Atom           X                Y                Z
 ----------------------------------------------------------------
    1      C       3.2346037813     1.8672699514    -0.6317962328
    2      C       2.0978346665     1.9956696678     0.0413381539
    3      C       1.0221711045     1.0038153611     0.0512890100
    4      C      -0.2955496429     1.4520960489     0.0593992309
    5      C      -1.3733687776     0.5832046751    -0.0404762066
    6      C      -2.7300903723     1.2078261411     0.0495432936
    7      O      -2.9525636251     2.3235658965    -0.3300650937
    8      O      -3.6931962832     0.4743772673     0.6335683576
    9      C      -1.1514091549    -0.7950668051    -0.2009073418
   10      C      -2.2414435501    -1.7449937965    -0.4454805014
   11      C      -2.2768758120    -2.9803910954     0.0373365965
   12      C       0.1648458562    -1.2460499476    -0.1769679523
   13      C       1.2393445503    -0.3818621275    -0.0192238387
   14      C       2.5842861362    -1.0277790085     0.1056864531
   15      O       2.9293939396    -1.9540031634    -0.5717990554
   16      O       3.3665722919    -0.5652355008     1.0985169725
   17      H       3.9734272003     2.6496071590    -0.6412423778
   18      H       3.4635578269     0.9873706982    -1.2107549040
   19      H       1.8769394291     2.9182698915     0.5631810390
   20      H      -0.5046490976     2.5094229809     0.1316469873
   21      H      -3.3882202087    -0.4075714049     0.8932820395
   22      H      -3.0409266228    -1.3915715269    -1.0860025784
   23      H      -1.5078452446    -3.3621861680     0.6881906825
   24      H      -3.0860521882    -3.6514088121    -0.1924703368
   25      H       0.3718104445    -2.2986364622    -0.2980034928
   26      H       2.9942151654     0.2146332575     1.5319595081
 ----------------------------------------------------------------

    9    -764.1581518399      9.17e-06  Convergence criterion met
 Total energy in the final basis set =     -764.1581518399

                    Orbital Energies (a.u.)
 --------------------------------------------------------------

 Alpha MOs
 -- Occupied --
-19.2017 -19.1996 -19.1425 -19.1400 -10.3292 -10.3279 -10.2331 -10.2318
-10.2296 -10.2286 -10.2225 -10.2197 -10.2185 -10.2174 -10.2145 -10.2087
 -1.1123  -1.1117  -1.0304  -1.0292  -0.9039  -0.8439  -0.8021  -0.7958
 -0.7499  -0.6894  -0.6618  -0.6391  -0.6254  -0.6093  -0.5981  -0.5559
 -0.5482  -0.5135  -0.4996  -0.4707  -0.4650  -0.4611  -0.4594  -0.4489
 -0.4472  -0.4421  -0.4337  -0.4137  -0.4044  -0.3944  -0.3897  -0.3707
 -0.3660  -0.3412  -0.3239  -0.3215  -0.3010  -0.2956  -0.2810  -0.2698
 -0.2506

          Ground-State Mulliken Net Atomic Charges

     Atom                 Charge (a.u.)
  ----------------------------------------
      1 C                    -0.321354
      2 C                    -0.187051
      3 C                     0.127557
      4 C                    -0.236462
      5 C                     0.017797
      6 C                     0.537203
      7 O                    -0.437375
      8 O                    -0.572017
      9 C                     0.115927
     10 C                    -0.206755
     11 C                    -0.324630
     12 C                    -0.226327
     13 C                     0.012423
     14 C                     0.517296
     15 O                    -0.438443
     16 O                    -0.558876
     17 H                     0.163204
     18 H                     0.181082
     19 H                     0.151748
     20 H                     0.173147
     21 H                     0.418372
     22 H                     0.178190
     23 H                     0.162947
     24 H                     0.165052
     25 H                     0.170855
     26 H                     0.416490
  ----------------------------------------
  Sum of atomic charges =     0.000000

                    Cartesian Multipole Moments
 -----------------------------------------------------------------
    Charge (ESU x 10^10)
                -0.0000
    Dipole Moment (Debye)
         X       0.0839      Y      -0.5699      Z       1.9670
       Tot       2.0496
    Quadrupole Moments (Debye-Ang)
        XX    -104.9870     XY      27.4078     YY     -92.1247
        XZ       1.3016     YZ       0.4011     ZZ     -89.5435

 Total job time:  48.25s(wall), 48.11s(cpu)
        *  Thank you very much for using Q-Chem.  Have a nice day.  *
