 Q-Chem 5.2, Q-Chem, Inc., Pleasanton, CA (2019)
 Q-Chem 5.2.1 for Intel X86 EM64T Linux

User input:
--------------------------------------------------------------
$molecule
0 1
C        -3.13311597740000    1.15082103270000    0.00043997730000
C        -2.64375033320000   -0.08619111920000   -0.00006589020000
C        -1.24730256020000   -0.42232707260000   -0.00012961900000
C        -0.70035044750000   -1.68171974900000    0.00016136200000
C         0.70035103930000   -1.68171930480000    0.00017238110000
C         1.24730250190000   -0.42232684980000   -0.00013209020000
C         2.64375010840000   -0.08619081810000   -0.00008565210000
C         3.13311604510000    1.15082148160000    0.00043491070000
S        -0.00000024640000    0.78915701840000   -0.00037804250000
H        -4.19164559570000    1.34083838920000    0.00042964710000
H        -2.48359807160000    2.01063674930000    0.00068164570000
H        -3.31121020950000   -0.93912846850000   -0.00037204760000
H        -1.29768752460000   -2.57680401330000    0.00041723390000
H         1.29768853190000   -2.57680330150000    0.00043185280000
H         3.31121032030000   -0.93912995770000   -0.00034855840000
H         2.48359936290000    2.01063469890000    0.00077526360000
H         4.19164653900000    1.34083630480000    0.00053158250000
$end

$rem
BASIS = 6-31G*
GUI = 2
METHOD = B3LYP
PRINT_ORBITALS false
MOLDEN_FORMAT false
--------------------------------------------------------------

             Standard Nuclear Orientation (Angstroms)
    I     Atom           X                Y                Z
 ----------------------------------------------------------------
    1      C       3.1331160454    -1.1532570505     0.0004087066
    2      C       2.6437503532     0.0837550897    -0.0000789351
    3      C       1.2473025670     0.4198909891    -0.0001392987
    4      C       0.7003504044     1.6792836394     0.0001701766
    5      C      -0.7003510824     1.6792831400     0.0001794360
    6      C      -1.2473024951     0.4198906683    -0.0001449039
    7      C      -2.6437500884     0.0837545810    -0.0001053397
    8      C      -3.1331159771    -1.1532577457     0.0003957677
    9      S       0.0000003012    -0.7915931470    -0.0004077409
   10      H       4.1916456712    -1.3432743652     0.0003968121
   11      H       2.4835981731    -2.0130727962     0.0006364634
   12      H       3.3112101963     0.9366924698    -0.0003712631
   13      H       1.2976874460     2.5743679232     0.0004404317
   14      H      -1.2976886105     2.5743671091     0.0004517901
   15      H      -3.3112103335     0.9366936982    -0.0003560937
   16      H      -2.4835992615    -2.0130709426     0.0007238410
   17      H      -4.1916464636    -1.3432726120     0.0004882156
 ----------------------------------------------------------------

    9    -707.8055823548      2.24e-06  Convergence criterion met
 Total energy in the final basis set =     -707.8055823548

                    Orbital Energies (a.u.)
 --------------------------------------------------------------

 Alpha MOs
 -- Occupied --
-88.9011 -10.2184 -10.2184 -10.1983 -10.1983 -10.1908 -10.1903 -10.1821
-10.1821  -7.9632  -5.9272  -5.9237  -5.9200  -0.8895  -0.8071  -0.7749
 -0.7333  -0.7064  -0.6273  -0.5781  -0.5516  -0.5304  -0.4987  -0.4608
 -0.4494  -0.4275  -0.3947  -0.3942  -0.3824  -0.3773  -0.3574  -0.3331
 -0.3229  -0.2719  -0.2521  -0.1998

          Ground-State Mulliken Net Atomic Charges

     Atom                 Charge (a.u.)
  ----------------------------------------
      1 C                    -0.373526
      2 C                    -0.056240
      3 C                    -0.137073
      4 C                    -0.138793
      5 C                    -0.138793
      6 C                    -0.137072
      7 C                    -0.056241
      8 C                    -0.373526
      9 S                     0.249542
     10 H                     0.147184
     11 H                     0.156733
     12 H                     0.138532
     13 H                     0.138411
     14 H                     0.138411
     15 H                     0.138532
     16 H                     0.156734
     17 H                     0.147184
  ----------------------------------------
  Sum of atomic charges =     0.000000

                    Cartesian Multipole Moments
 -----------------------------------------------------------------
    Charge (ESU x 10^10)
                 0.0000
    Dipole Moment (Debye)
         X       0.0000      Y       0.8718      Z       0.0004
       Tot       0.8718
    Quadrupole Moments (Debye-Ang)
        XX     -52.4627     XY      -0.0000     YY     -54.4213
        XZ      -0.0006     YZ      -0.0006     ZZ     -64.8718

 Total job time:  16.30s(wall), 16.23s(cpu)
        *  Thank you very much for using Q-Chem.  Have a nice day.  *
