 Q-Chem 5.2, Q-Chem, Inc., Pleasanton, CA (2019)
 Q-Chem 5.2.1 for Intel X86 EM64T Linux

User input:
--------------------------------------------------------------
$molecule
0 1
C         3.63426133610000    1.58307965720000   -0.34220990650000
C         2.53469804690000    1.64274725940000    0.39650628070000
C         1.36146514760000    0.79791280090000    0.24793523660000
C         0.05403663930000    1.28203382060000    0.42392971650000
C        -0.82556399360000    0.26136916060000    0.10937572700000
C        -2.27594680080000    0.25431177910000    0.12286789420000
O        -2.98000724410000    1.18474848330000    0.43225656430000
O        -2.75607414730000   -0.95554269230000   -0.26877233500000
C        -4.16614517730000   -1.10993699170000   -0.30347779630000
N        -0.07870264830000   -0.82470522220000   -0.24279955980000
C         1.24706324980000   -0.54102330190000   -0.15456422770000
C         2.20231257890000   -1.59832307780000   -0.38862538970000
C         3.45065439100000   -1.65116094530000    0.06429775880000
H         4.44577560920000    2.27601223190000   -0.19976646950000
H         3.75910230440000    0.84840448060000   -1.11951080010000
H         2.42742206560000    2.42509497100000    1.13804792710000
H        -0.22497137480000    2.27162097240000    0.72544622830000
H        -4.43380632810000   -1.53413708300000   -1.27089222140000
H        -4.64669028650000   -0.13916592930000   -0.16731288410000
H        -4.46937524830000   -1.78705375930000    0.49688733360000
H        -0.47262384140000   -1.71888017820000   -0.48787936290000
H         1.80495918570000   -2.43747595130000   -0.94986461170000
H         3.87493543870000   -0.85843300060000    0.65420820480000
H         4.08153182090000   -2.49908680390000   -0.13813394970000
$end

$rem
BASIS = 6-31G*
GUI = 2
METHOD = B3LYP
PRINT_ORBITALS false
MOLDEN_FORMAT false
--------------------------------------------------------------

             Standard Nuclear Orientation (Angstroms)
    I     Atom           X                Y                Z
 ----------------------------------------------------------------
    1      C       3.7186496286     1.2187398780    -0.5780974209
    2      C       2.6287987061     1.5014643276     0.1223260992
    3      C       1.3911439423     0.7395727705     0.1172276544
    4      C       0.1272152599     1.3501602585     0.1834373821
    5      C      -0.8322049769     0.3619624013     0.0516206974
    6      C      -2.2784289710     0.4726792784     0.0471413407
    7      O      -2.9048027978     1.4972523669     0.1697820071
    8      O      -2.8550290792    -0.7468242005    -0.1201779945
    9      C      -4.2730109660    -0.7925536770    -0.1442313132
   10      N      -0.1757657793    -0.8263811824    -0.0837084333
   11      C       1.1686812058    -0.6374025771    -0.0320798255
   12      C       2.0353629210    -1.7921986768    -0.0539315296
   13      C       3.2762346360    -1.8590397305     0.4172989438
   14      H       4.5835290095     1.8594282785    -0.5556668347
   15      H       3.7825735868     0.3451002761    -1.2043538661
   16      H       2.5861520455     2.4137700984     0.7048546687
   17      H      -0.0707406894     2.3974683506     0.2929801233
   18      H      -4.5756907676    -1.3662046959    -1.0198958181
   19      H      -4.6736659703     0.2216561516    -0.1963363230
   20      H      -4.6282607445    -1.2832424225     0.7635363244
   21      H      -0.6407800636    -1.7163568438    -0.1642807963
   22      H       1.5707761293    -2.6866465746    -0.4554023252
   23      H       3.7639799479    -1.0068822915     0.8558859316
   24      H       3.8364946726    -2.7771528978     0.3835336771
 ----------------------------------------------------------------

    9    -592.8473620213      5.80e-06  Convergence criterion met
 Total energy in the final basis set =     -592.8473620213

                    Orbital Energies (a.u.)
 --------------------------------------------------------------

 Alpha MOs
 -- Occupied --
-19.1897 -19.1272 -14.3920 -10.3123 -10.2360 -10.2281 -10.2184 -10.2025
-10.1889 -10.1867 -10.1845 -10.1826 -10.1732  -1.1014  -1.0123  -0.9987
 -0.8159  -0.8011  -0.7576  -0.7510  -0.7058  -0.6335  -0.6199  -0.6043
 -0.5555  -0.5428  -0.5325  -0.4900  -0.4828  -0.4699  -0.4588  -0.4456
 -0.4342  -0.4324  -0.4208  -0.4124  -0.3921  -0.3878  -0.3645  -0.3568
 -0.3504  -0.2986  -0.2983  -0.2942  -0.2746  -0.2376  -0.2005

          Ground-State Mulliken Net Atomic Charges

     Atom                 Charge (a.u.)
  ----------------------------------------
      1 C                    -0.344175
      2 C                    -0.128501
      3 C                     0.032172
      4 C                    -0.224927
      5 C                     0.292498
      6 C                     0.572013
      7 O                    -0.488816
      8 O                    -0.491331
      9 C                    -0.232409
     10 N                    -0.701580
     11 C                     0.324331
     12 C                    -0.133396
     13 C                    -0.340989
     14 H                     0.139118
     15 H                     0.150579
     16 H                     0.132538
     17 H                     0.151846
     18 H                     0.159970
     19 H                     0.195083
     20 H                     0.160003
     21 H                     0.342234
     22 H                     0.124822
     23 H                     0.164944
     24 H                     0.143974
  ----------------------------------------
  Sum of atomic charges =     0.000000

                    Cartesian Multipole Moments
 -----------------------------------------------------------------
    Charge (ESU x 10^10)
                 0.0000
    Dipole Moment (Debye)
         X       0.3849      Y      -3.1139      Z      -0.2770
       Tot       3.1498
    Quadrupole Moments (Debye-Ang)
        XX     -68.5379     XY       7.8951     YY     -71.7530
        XZ       1.4890     YZ       1.6534     ZZ     -77.0760

 Total job time:  31.76s(wall), 30.74s(cpu)
        *  Thank you very much for using Q-Chem.  Have a nice day.  *
