 Q-Chem 5.2, Q-Chem, Inc., Pleasanton, CA (2019)
 Q-Chem 5.2.1 for Intel X86 EM64T Linux

User input:
--------------------------------------------------------------
$molecule
0 1
C        -2.75080791900000    0.90026291610000    0.45758659950000
C        -2.20609043960000   -0.14313225380000   -0.15249083390000
C        -0.80053570950000   -0.50247232320000   -0.12656503870000
N        -0.48526042330000   -1.78610638160000   -0.21929594890000
N         0.84644084860000   -1.85719088160000   -0.08805507240000
C         1.40554276180000   -0.64109581020000    0.09631906020000
N         2.75673156580000   -0.47910265780000    0.32067145450000
C         0.37022278330000    0.28947995500000    0.06489104790000
C         0.56560778090000    1.72436125080000    0.13260480930000
C        -0.16982407270000    2.64010328900000   -0.48471213700000
H        -3.81271293090000    1.07618594610000    0.42544235880000
H        -2.16154644560000    1.60942356280000    1.01321078820000
H        -2.82639505540000   -0.86553690600000   -0.66666635240000
H         1.30417615760000   -2.75416588000000   -0.09071940370000
H         3.34769828730000   -1.18772149170000   -0.08813147630000
H         3.08940825570000    0.45676493180000    0.14602420970000
H         1.42772896670000    2.03582842460000    0.71382028900000
H        -1.01877446080000    2.37244426190000   -1.08957868120000
H         0.05353720240000    3.69014565010000   -0.40114492820000
$end

$rem
BASIS = 6-31G*
GUI = 2
METHOD = B3LYP
PRINT_ORBITALS false
MOLDEN_FORMAT false
--------------------------------------------------------------

             Standard Nuclear Orientation (Angstroms)
    I     Atom           X                Y                Z
 ----------------------------------------------------------------
    1      C       2.8243557912     0.5037101246     0.5067752134
    2      C       1.8687957825     1.1844497487    -0.1105445754
    3      C       0.4559295071     0.8540106108    -0.1099155400
    4      N      -0.4150126298     1.8480551974    -0.2050421798
    5      N      -1.6308840755     1.2948692522    -0.0985180557
    6      C      -1.5679861372    -0.0439423808     0.0720787015
    7      N      -2.6949363951    -0.8138897469     0.2707017913
    8      C      -0.2195968700    -0.3910442870     0.0574813169
    9      C       0.2686866696    -1.7547174936     0.1176423857
   10      C       1.3532449810    -2.2206431203    -0.4883033904
   11      H       3.8478491209     0.8382586584     0.4940040910
   12      H       2.6207246769    -0.4034753045     1.0493663232
   13      H       2.0932068760     2.1172564397    -0.6110783905
   14      H      -2.4509970048     1.8791897480    -0.1073044587
   15      H      -3.5400041575    -0.4536653868    -0.1471511029
   16      H      -2.5551325748    -1.7956504209     0.0873320660
   17      H      -0.3609726522    -2.4354027610     0.6817991711
   18      H       1.9918158219    -1.5846346761    -1.0764718974
   19      H       1.6387632516    -3.2560584300    -0.4117713623
 ----------------------------------------------------------------

    9    -436.3432406850      4.39e-06  Convergence criterion met
 Total energy in the final basis set =     -436.3432406850

                    Orbital Energies (a.u.)
 --------------------------------------------------------------

 Alpha MOs
 -- Occupied --
-14.4001 -14.3608 -14.3305 -10.2565 -10.1979 -10.1851 -10.1769 -10.1711
-10.1650 -10.1649  -1.0462  -0.9307  -0.8275  -0.7874  -0.7511  -0.7321
 -0.6276  -0.6184  -0.5745  -0.5450  -0.5322  -0.5032  -0.4753  -0.4585
 -0.4402  -0.4337  -0.4047  -0.3964  -0.3565  -0.3482  -0.3307  -0.2998
 -0.2828  -0.2678  -0.2093  -0.1923

          Ground-State Mulliken Net Atomic Charges

     Atom                 Charge (a.u.)
  ----------------------------------------
      1 C                    -0.349366
      2 C                    -0.100378
      3 C                     0.252425
      4 N                    -0.351529
      5 N                    -0.483328
      6 C                     0.497165
      7 N                    -0.791977
      8 C                     0.000808
      9 C                    -0.149662
     10 C                    -0.347110
     11 H                     0.136645
     12 H                     0.154712
     13 H                     0.137001
     14 H                     0.332823
     15 H                     0.324874
     16 H                     0.339112
     17 H                     0.113606
     18 H                     0.152542
     19 H                     0.131637
  ----------------------------------------
  Sum of atomic charges =     0.000000

                    Cartesian Multipole Moments
 -----------------------------------------------------------------
    Charge (ESU x 10^10)
                -0.0000
    Dipole Moment (Debye)
         X      -3.4774      Y      -1.5554      Z      -0.7214
       Tot       3.8771
    Quadrupole Moments (Debye-Ang)
        XX     -42.8085     XY      -0.6408     YY     -57.8841
        XZ       2.4874     YZ      -0.4388     ZZ     -62.1482

 Total job time:  19.68s(wall), 19.60s(cpu)
        *  Thank you very much for using Q-Chem.  Have a nice day.  *
