 Q-Chem 5.2, Q-Chem, Inc., Pleasanton, CA (2019)
 Q-Chem 5.2.1 for Intel X86 EM64T Linux

User input:
--------------------------------------------------------------
$molecule
0 1
C         3.24775951750000   -2.98571493070000   -0.43795466980000
C         3.20222682610000   -1.79104393370000    0.13603875350000
C         2.05441967470000   -0.88400259370000    0.09070371730000
C         0.76455075040000   -1.39630288810000    0.07728668580000
C        -0.32796952470000   -0.54765347060000    0.07768268910000
O        -1.58876188740000   -1.19662203980000    0.06779371090000
C        -2.69071383700000   -0.49387711780000   -0.00296813110000
F        -2.91692968750000    0.31087569840000    1.05529228470000
F        -2.77741473690000    0.31198205630000   -1.08081228410000
F        -3.73129794000000   -1.32220496400000   -0.06945754460000
C        -0.16131888510000    0.82097534130000    0.11477751770000
C         1.12147827720000    1.36384075220000    0.12325001850000
C         1.28788082100000    2.81605323300000    0.19787737410000
C         0.47188752870000    3.70199015380000   -0.35748362840000
C         2.24255385540000    0.51390188070000    0.08559741380000
N         3.51391442980000    1.04221647750000    0.05947190870000
H         4.11232956500000   -3.62111369460000   -0.35131760360000
H         2.43052193520000   -3.36836311360000   -1.02528118290000
H         4.05665527040000   -1.44038630830000    0.70193454050000
H         0.59786163530000   -2.46002485940000    0.09210156150000
H        -1.00014333890000    1.49539659210000    0.16139397250000
H         2.14031790980000    3.16294363040000    0.76918815790000
H        -0.37649250930000    3.40571694480000   -0.95089091620000
H         0.63125653740000    4.76102704520000   -0.24920285970000
H         3.59681212070000    1.99833500680000   -0.24137184190000
H         4.24605820830000    0.43535674500000   -0.26788756840000
$end

$rem
BASIS = 6-31G*
GUI = 2
METHOD = B3LYP
PRINT_ORBITALS false
MOLDEN_FORMAT false
--------------------------------------------------------------

             Standard Nuclear Orientation (Angstroms)
    I     Atom           X                Y                Z
 ----------------------------------------------------------------
    1      C      -3.1118451326    -3.0237139869     0.3913808532
    2      C      -3.0698719331    -1.8221627483    -0.1683452751
    3      C      -1.9256205244    -0.9113666090    -0.1102107658
    4      C      -0.6338288365    -1.4188842705    -0.1005407808
    5      C       0.4554394846    -0.5661439026    -0.0889247707
    6      O       1.7186833107    -1.2103879683    -0.0844529471
    7      C       2.8178160408    -0.5043479131    -0.0033946665
    8      F       3.0428097097     0.3137387152    -1.0516446039
    9      F       2.8995473038     0.2890099956     1.0840690350
   10      F       3.8614397321    -1.3294447408     0.0551540658
   11      C       0.2836253231     0.8021850966    -0.1101127563
   12      C      -1.0012201330     1.3402338100    -0.1144639750
   13      C      -1.1730398118     2.7925855713    -0.1721917643
   14      C      -0.3614127264     3.6749760371     0.3950856495
   15      C      -2.1191038859     0.4856542180    -0.0888926661
   16      N      -3.3925178995     1.0087868503    -0.0588000698
   17      H      -3.9738275840    -3.6613229050     0.2956726589
   18      H      -2.2941820849    -3.4101843901     0.9756043538
   19      H      -3.9246408335    -1.4680756377    -0.7315852092
   20      H      -0.4630503632    -2.4817149455    -0.1276487742
   21      H       1.1199468747     1.4802941919    -0.1472328151
   22      H      -2.0257934862     3.1429774606    -0.7408873283
   23      H       0.4870517729     3.3749202405     0.9864681186
   24      H      -0.5246374755     4.7346080330     0.2990645184
   25      H      -3.4795958890     1.9609524815     0.2531929845
   26      H      -4.1229100207     0.3953137195     0.2600345922
 ----------------------------------------------------------------

    9    -854.6474624157      2.85e-06  Convergence criterion met
 Total energy in the final basis set =     -854.6474624157

                    Orbital Energies (a.u.)
 --------------------------------------------------------------

 Alpha MOs
 -- Occupied --
-24.7216 -24.7197 -24.7192 -19.2135 -14.3522 -10.4732 -10.2553 -10.2369
-10.2006 -10.1998 -10.1996 -10.1986 -10.1956 -10.1951 -10.1886 -10.1875
 -1.3176  -1.2175  -1.2123  -1.1110  -0.9394  -0.8618  -0.8163  -0.7894
 -0.7475  -0.7303  -0.6889  -0.6568  -0.6359  -0.6095  -0.5936  -0.5931
 -0.5626  -0.5464  -0.5386  -0.5327  -0.4790  -0.4722  -0.4635  -0.4614
 -0.4567  -0.4523  -0.4408  -0.4315  -0.4283  -0.4163  -0.4114  -0.4012
 -0.3937  -0.3903  -0.3816  -0.3780  -0.3591  -0.3456  -0.3118  -0.3113
 -0.2805  -0.2329  -0.2009

          Ground-State Mulliken Net Atomic Charges

     Atom                 Charge (a.u.)
  ----------------------------------------
      1 C                    -0.334367
      2 C                    -0.154063
      3 C                     0.144038
      4 C                    -0.252424
      5 C                     0.342020
      6 O                    -0.525406
      7 C                     0.972284
      8 F                    -0.279421
      9 F                    -0.281222
     10 F                    -0.257027
     11 C                    -0.242889
     12 C                     0.130197
     13 C                    -0.154080
     14 C                    -0.336075
     15 C                     0.195842
     16 N                    -0.817938
     17 H                     0.146216
     18 H                     0.150186
     19 H                     0.139766
     20 H                     0.148797
     21 H                     0.162174
     22 H                     0.139486
     23 H                     0.153354
     24 H                     0.146133
     25 H                     0.332422
     26 H                     0.331996
  ----------------------------------------
  Sum of atomic charges =     0.000000

                    Cartesian Multipole Moments
 -----------------------------------------------------------------
    Charge (ESU x 10^10)
                 0.0000
    Dipole Moment (Debye)
         X      -4.0750      Y       0.9936      Z       0.8423
       Tot       4.2781
    Quadrupole Moments (Debye-Ang)
        XX     -83.6742     XY       0.2593     YY     -81.5068
        XZ      -1.8315     YZ       0.3811     ZZ     -93.3029

 Total job time:  44.43s(wall), 44.29s(cpu)
        *  Thank you very much for using Q-Chem.  Have a nice day.  *
