 Q-Chem 5.4, Q-Chem, Inc., Pleasanton, CA (2021)
 Q-Chem 5.4.2 for Intel X86 EM64T Linux

User input:
--------------------------------------------------------------
$molecule
0 1
C            0.05621806580000        4.16378688990000       -0.04730598430000
C           -0.81122699000000        3.15947048940000       -0.02662887060000
C           -0.49283863910000        1.73573534220000        0.02446381530000
C           -1.54309371530000        0.81812849900000       -0.00607588750000
C           -1.31472400040000       -0.55653018470000        0.03749620030000
C           -2.37833812090000       -1.54980541030000        0.00612685640000
C           -3.68629496390000       -1.35560211870000       -0.07033605740000
F           -4.33980381070000       -0.20178101840000       -0.13635823180000
F           -4.56969088670000       -2.35028925530000       -0.09262904630000
C            0.00036247340000       -1.01066530680000        0.11548182280000
C            1.05716921040000       -0.10880328970000        0.14904023520000
C            2.43601246170000       -0.65777313020000        0.23320596460000
O            2.68786711640000       -1.83767858750000        0.27050610260000
O            3.36638485770000        0.30352965570000        0.27460910430000
C            4.72798552390000       -0.11982644800000        0.34160388140000
C            5.27341253510000       -0.46346784880000       -1.03711725880000
C            0.81435502750000        1.25768430460000        0.10338923190000
H           -0.27672914090000        5.18658088430000       -0.08679843100000
H            1.12232989350000        4.01703422890000       -0.02775613740000
H           -1.87100138630000        3.38048728300000       -0.05265394450000
H           -2.55159507170000        1.19546335790000       -0.06602962640000
H           -2.06816985680000       -2.58373223310000        0.04984859560000
H            0.22288231580000       -2.06637409670000        0.15223608360000
H            4.79632067020000       -0.99039015290000        1.00228718480000
H            5.26529629780000        0.72398899720000        0.77969462260000
H            4.73345278020000       -1.31307200870000       -1.44771197500000
H            6.32590224570000       -0.72003119870000       -0.95843532430000
H            5.16243486890000        0.38454544810000       -1.70879979000000
H            1.64927386190000        1.93749592130000        0.13244048830000
$end

$rem
BASIS = 6-31G*
GUI = 2
METHOD = B3LYP
PRINT_ORBITALS false
MOLDEN_FORMAT false
$end
--------------------------------------------------------------

             Standard Nuclear Orientation (Angstroms)
    I     Atom           X                Y                Z
 ----------------------------------------------------------------
    1      C       0.3116110198    -4.1058555849     0.0455360093
    2      C      -0.6450717559    -3.1860631000     0.0288102337
    3      C      -0.4599769556    -1.7390969415    -0.0262554094
    4      C      -1.5903590312    -0.9224394036     0.0094873682
    5      C      -1.4903135697     0.4673545495    -0.0374319624
    6      C      -2.6409873578     1.3581231778    -0.0008834843
    7      C      -3.9249055120     1.0440028522     0.0839409988
    8      F      -4.4685417001    -0.1651524206     0.1556284666
    9      F      -4.8963213512     1.9528177284     0.1102966756
   10      C      -0.2233348680     1.0409493942    -0.1241892314
   11      C       0.9120969748     0.2405688833    -0.1630133500
   12      C       2.2337540794     0.9144733545    -0.2564784713
   13      O       2.3752251417     2.1125314262    -0.2969969986
   14      O       3.2487429758     0.0432043451    -0.3022814704
   15      C       4.5649474445     0.5904731919    -0.3782924630
   16      C       5.0845725243     0.9857800967     0.9965436170
   17      C       0.7969263231    -1.1424200359    -0.1139373131
   18      H       0.0748852759    -5.1549665118     0.0885271251
   19      H       1.3594538240    -3.8612250322     0.0191860631
   20      H      -1.6797000438    -3.5040411255     0.0617006516
   21      H      -2.5592795109    -1.3912596170     0.0762087596
   22      H      -2.4279972611     2.4162053516    -0.0479785971
   23      H      -0.0995878886     2.1126322929    -0.1638055761
   24      H       4.5485271779     1.4623205725    -1.0406109692
   25      H       5.1753126408    -0.2009269608    -0.8185094504
   26      H       4.4708688499     1.7826450421     1.4092733654
   27      H       6.1083439418     1.3383751395     0.9109924000
   28      H       5.0565152984     0.1324666266     1.6700931184
   29      H       1.6909243234    -1.7422023243    -0.1471946709
 ----------------------------------------------------------------

    9    -852.7135964368      6.31e-06  Convergence criterion met
 Total energy in the final basis set =     -852.7135964368

                    Orbital Energies (a.u.)
 --------------------------------------------------------------

 Alpha MOs
 -- Occupied --
-24.7490 -24.7381 -19.1925 -19.1336 -10.3615 -10.3148 -10.2438 -10.2138
-10.2069 -10.2050 -10.2047 -10.1978 -10.1974 -10.1971 -10.1959 -10.1858
-10.1807  -1.2902  -1.2289  -1.1096  -1.0183  -0.8809  -0.8214  -0.8026
 -0.7753  -0.7504  -0.7348  -0.6743  -0.6540  -0.6310  -0.6247  -0.5855
 -0.5706  -0.5504  -0.5377  -0.5235  -0.5131  -0.5017  -0.4888  -0.4706
 -0.4602  -0.4535  -0.4451  -0.4450  -0.4414  -0.4384  -0.4185  -0.4136
 -0.4071  -0.3952  -0.3826  -0.3790  -0.3723  -0.3605  -0.3538  -0.3406
 -0.3251  -0.3005  -0.2901  -0.2749  -0.2410  -0.2244

          Ground-State Mulliken Net Atomic Charges

     Atom                 Charge (a.u.)
  ----------------------------------------
      1 C                    -0.352262
      2 C                    -0.111422
      3 C                     0.180212
      4 C                    -0.264874
      5 C                     0.195746
      6 C                    -0.295607
      7 C                     0.546366
      8 F                    -0.233693
      9 F                    -0.245595
     10 C                    -0.234458
     11 C                     0.047448
     12 C                     0.605354
     13 O                    -0.492659
     14 O                    -0.468647
     15 C                    -0.045558
     16 C                    -0.464733
     17 C                    -0.222563
     18 H                     0.147695
     19 H                     0.147469
     20 H                     0.130801
     21 H                     0.142651
     22 H                     0.166249
     23 H                     0.160020
     24 H                     0.168974
     25 H                     0.151487
     26 H                     0.179674
     27 H                     0.152129
     28 H                     0.156756
     29 H                     0.153040
  ----------------------------------------
  Sum of atomic charges =     0.000000

                    Cartesian Multipole Moments
 -----------------------------------------------------------------
    Charge (ESU x 10^10)
                -0.0000
    Dipole Moment (Debye)
         X       1.1684      Y      -1.5881      Z       0.1377
       Tot       1.9764
    Quadrupole Moments (Debye-Ang)
        XX     -87.3202     XY      -2.2105     YY     -95.1006
        XZ       0.0955     YZ       0.3173     ZZ     -97.9770

 Total job time:  88.83s(wall), 80.53s(cpu)
        *  Thank you very much for using Q-Chem.  Have a nice day.  *
