 Q-Chem 5.2, Q-Chem, Inc., Pleasanton, CA (2019)
 Q-Chem 5.2.1 for Intel X86 EM64T Linux

User input:
--------------------------------------------------------------
$molecule
0 1
C         3.65930999090000   -0.53384429960000   -0.26526617530000
C         2.69357543250000    0.19809886820000    0.27299784920000
C         1.26233575940000   -0.05953791070000    0.11232714960000
C         0.80984574880000   -1.37388926280000    0.04071312850000
C        -0.54011554630000   -1.62819059560000   -0.06891788890000
F        -0.96705566940000   -2.91399427870000   -0.12653077640000
C        -1.46911204730000   -0.60990240030000   -0.12304233100000
C        -1.04416433240000    0.71224702010000   -0.06994403340000
C        -2.02130228260000    1.79601742570000   -0.18398501460000
C        -3.25862708010000    1.75350071380000    0.29155954590000
C         0.33125084610000    0.99670871460000    0.05897771690000
N         0.75805279020000    2.30773471770000    0.06054362650000
H         4.69884444850000   -0.31422101830000   -0.09239736790000
H         3.44841374260000   -1.36879384260000   -0.91130627160000
H         2.96593742460000    1.04317256410000    0.89612694310000
H         1.50659871350000   -2.19425388770000    0.09784941180000
H        -2.51531980440000   -0.84419345310000   -0.23365898500000
H        -1.68671839760000    2.67771138790000   -0.71686942420000
H        -3.62978702480000    0.90651723970000    0.84352223220000
H        -3.94468200920000    2.57209692960000    0.15650161090000
H         0.09979347660000    2.99619250640000    0.38347319610000
H         1.71004135030000    2.47221314720000    0.34082940180000
$end

$rem
BASIS = 6-31G*
GUI = 2
METHOD = B3LYP
PRINT_ORBITALS false
MOLDEN_FORMAT false
--------------------------------------------------------------

             Standard Nuclear Orientation (Angstroms)
    I     Atom           X                Y                Z
 ----------------------------------------------------------------
    1      C       3.6427245458     0.5846774318    -0.2363611737
    2      C       2.4852827352     0.9932789082     0.2651221130
    3      C       1.2136888148     0.2854181152     0.1147200354
    4      C       1.2050045460    -1.1064234621     0.1048782011
    5      C       0.0085292678    -1.7829135772     0.0054213809
    6      F       0.0147269976    -3.1389525961     0.0082484389
    7      C      -1.1955596077    -1.1178747597    -0.0983483344
    8      C      -1.2151560379     0.2717341422    -0.1074125087
    9      C      -2.4847486527     0.9807301222    -0.2742103024
   10      C      -3.6516757957     0.5667131308     0.2009674832
   11      C      -0.0044913837     0.9857581780     0.0099201715
   12      N      -0.0179316292     2.3631361028    -0.0500876990
   13      H       4.5550168208     1.1320717780    -0.0725560046
   14      H       3.7196990279    -0.3017850060    -0.8423686394
   15      H       2.4637112413     1.9079245119     0.8478558121
   16      H       2.1258593606    -1.6580910152     0.2019178207
   17      H      -2.1105315948    -1.6785145391    -0.1992855093
   18      H      -2.4398829675     1.8984677444    -0.8478313796
   19      H      -3.7425843268    -0.3289912438     0.7919436496
   20      H      -4.5605381467     1.1166542367     0.0261939634
   21      H      -0.8665543154     2.8191306484     0.2388265937
   22      H       0.8271927365     2.8351641536     0.2234992414
 ----------------------------------------------------------------

    9    -541.6256882506      1.37e-06  Convergence criterion met
 Total energy in the final basis set =     -541.6256882506

                    Orbital Energies (a.u.)
 --------------------------------------------------------------

 Alpha MOs
 -- Occupied --
-24.6877 -14.3457 -10.2519 -10.2298 -10.1961 -10.1942 -10.1939 -10.1935
-10.1855 -10.1853 -10.1831 -10.1825  -1.1979  -0.9325  -0.8504  -0.8104
 -0.7751  -0.7236  -0.7207  -0.6491  -0.6109  -0.5858  -0.5482  -0.5383
 -0.5302  -0.5050  -0.4693  -0.4584  -0.4572  -0.4436  -0.4333  -0.4266
 -0.4098  -0.3869  -0.3749  -0.3708  -0.3604  -0.3342  -0.3083  -0.3053
 -0.2731  -0.2270  -0.1932

          Ground-State Mulliken Net Atomic Charges

     Atom                 Charge (a.u.)
  ----------------------------------------
      1 C                    -0.335922
      2 C                    -0.141222
      3 C                     0.149739
      4 C                    -0.276007
      5 C                     0.384904
      6 F                    -0.311381
      7 C                    -0.278445
      8 C                     0.142587
      9 C                    -0.152495
     10 C                    -0.335525
     11 C                     0.184066
     12 N                    -0.812864
     13 H                     0.142561
     14 H                     0.149278
     15 H                     0.122096
     16 H                     0.141151
     17 H                     0.141379
     18 H                     0.138723
     19 H                     0.147918
     20 H                     0.143397
     21 H                     0.328743
     22 H                     0.327321
  ----------------------------------------
  Sum of atomic charges =     0.000000

                    Cartesian Multipole Moments
 -----------------------------------------------------------------
    Charge (ESU x 10^10)
                 0.0000
    Dipole Moment (Debye)
         X      -0.0313      Y       2.8631      Z       0.8333
       Tot       2.9821
    Quadrupole Moments (Debye-Ang)
        XX     -61.1166     XY      -0.0168     YY     -66.1972
        XZ      -0.1758     YZ       2.7523     ZZ     -72.4583

 Total job time:  26.91s(wall), 26.82s(cpu)
        *  Thank you very much for using Q-Chem.  Have a nice day.  *
