 Q-Chem 5.2, Q-Chem, Inc., Pleasanton, CA (2019)
 Q-Chem 5.2.1 for Intel X86 EM64T Linux

User input:
--------------------------------------------------------------
$molecule
0 1
C         4.68575871480000   -0.26526914140000   -0.59958659940000
C         3.73659569170000    0.10287947180000    0.25631263570000
C         2.44685438780000   -0.52640632300000    0.37316119310000
S         2.18739993400000   -2.10403318250000   -0.30588120290000
C         0.60515088800000   -2.19702286860000    0.40679408270000
C        -0.12618678340000   -3.43269767200000    0.19386176750000
C        -0.78077999590000   -4.13005951910000    1.11344857940000
C         0.28330844080000   -1.04280405700000    1.07942681100000
C        -1.04402464270000   -0.83553143930000    1.74853952060000
C        -2.06100841850000   -0.10888074170000    0.85880566750000
C        -2.35480424640000   -0.86809684150000   -0.43141211010000
C        -3.41278677720000   -0.15945594460000   -1.27367826880000
C        -3.65441513240000   -0.83113725000000   -2.62564969720000
C        -4.28555406430000   -2.21323932050000   -2.50441518410000
C         1.32900232430000   -0.07764329400000    1.04168209800000
C         1.27004358250000    1.28723206530000    1.66568438530000
C         1.48121056040000    2.43281633890000    0.66244331700000
C         0.31609074440000    2.62792908680000   -0.30903519620000
C        -0.85244327990000    3.41552662830000    0.29011764020000
C        -0.60309496210000    4.92315104020000    0.37678826930000
C        -0.65207679450000    5.61561530580000   -0.98010914800000
H         5.64446330880000    0.22183842160000   -0.62528433440000
H         4.52867136740000   -1.06653765200000   -1.30276042710000
H         3.92359465360000    0.91072169100000    0.95197216530000
H        -0.05169325260000   -3.82610678020000   -0.81366150220000
H        -0.83108862420000   -3.82702835230000    2.14530770710000
H        -1.27777443600000   -5.05166699450000    0.86356183850000
H        -0.90141769740000   -0.26608475670000    2.66977009110000
H        -1.46341455950000   -1.80231786250000    2.01934732600000
H        -1.69405172970000    0.88620850200000    0.61395292570000
H        -2.98861291110000    0.00938267670000    1.42494212420000
H        -2.69011476460000   -1.87596836150000   -0.18195682560000
H        -1.43623780430000   -0.95929466690000   -1.01532505790000
H        -3.08998068920000    0.87056654230000   -1.44812552500000
H        -4.35287181530000   -0.11999461680000   -0.71786934980000
H        -2.70544964440000   -0.91193351290000   -3.16080439130000
H        -4.31438322980000   -0.19306266590000   -3.21867298570000
H        -3.61403180980000   -2.90624333400000   -2.00441312080000
H        -4.51143886430000   -2.61272385390000   -3.49065929050000
H        -5.21195743780000   -2.15955406220000   -1.93631712710000
H         2.05171801020000    1.35430882710000    2.42990439190000
H         0.31195992000000    1.42202260680000    2.16623389360000
H         2.38368365820000    2.23610011740000    0.08329101620000
H         1.64413538400000    3.35546746120000    1.22333797480000
H        -0.02824411620000    1.64625162920000   -0.64088983200000
H         0.67805404020000    3.15292540850000   -1.19427072400000
H        -1.06238393920000    3.04055463470000    1.29456983120000
H        -1.74682406920000    3.25017868770000   -0.31619135830000
H         0.36550138260000    5.11182502010000    0.84367637210000
H        -1.36760061380000    5.36406917070000    1.02126071500000
H         0.13136882300000    5.24813909270000   -1.63806623680000
H        -0.51689110300000    6.68837121960000   -0.86147385210000
H        -1.61254117150000    5.44233859140000   -1.46118053600000
$end

$rem
BASIS = 6-31G*
GUI = 2
METHOD = B3LYP
PRINT_ORBITALS false
MOLDEN_FORMAT false
--------------------------------------------------------------

             Standard Nuclear Orientation (Angstroms)
    I     Atom           X                Y                Z
 ----------------------------------------------------------------
    1      C      -1.0941056131     4.3282292330    -1.7878053600
    2      C      -1.2261322452     3.5493081450    -0.7178248679
    3      C      -0.2444517431     2.5962345784    -0.2694489135
    4      S       1.3892185396     2.6956937894    -0.8513002431
    5      C       1.9007029819     1.4486659433     0.2456821654
    6      C       3.3145755864     1.1201525876     0.2342622954
    7      C       4.0968519475     0.9658115587     1.2947660747
    8      C       0.8470947269     0.9497909928     0.9731928814
    9      C       0.9995852726    -0.1698268538     1.9609627847
   10      C       0.6992021319    -1.5492238419     1.3601820559
   11      C       1.6203350653    -1.8902822131     0.1928859089
   12      C       1.3454901070    -3.2899781231    -0.3513776733
   13      C       2.1729882954    -3.6261074859    -1.5921961858
   14      C       3.6661141858    -3.7349895148    -1.3059094922
   15      C      -0.3850281269     1.5915460892     0.6626138592
   16      C      -1.7146910514     1.2546750256     1.2743769898
   17      C      -2.7787624545     0.8396903638     0.2453059324
   18      C      -2.5228130762    -0.5261020847    -0.3937907545
   19      C      -2.9630736841    -1.7019503697     0.4827462854
   20      C      -4.4761447584    -1.9323385676     0.4951942270
   21      C      -5.0004208290    -2.5273968516    -0.8063882024
   22      H      -1.8474329294     5.0453841255    -2.0620962000
   23      H      -0.2256834075     4.2684819790    -2.4229700876
   24      H      -2.1093034341     3.6325447708    -0.0976634702
   25      H       3.7516711153     1.0688074238    -0.7565627771
   26      H       3.7359195276     1.0740016650     2.3032871675
   27      H       5.1443777080     0.7430686143     1.1857589307
   28      H       0.3365340283     0.0034390006     2.8116178384
   29      H       2.0212041440    -0.1805440974     2.3352364547
   30      H      -0.3354201526    -1.5892536471     1.0243740415
   31      H       0.8224687043    -2.2992593634     2.1458021212
   32      H       2.6569795659    -1.8160674608     0.5250401400
   33      H       1.4757155339    -1.1614640615    -0.6077044829
   34      H       0.2852032541    -3.3644743372    -0.6079396404
   35      H       1.5481746202    -4.0288738953     0.4278480037
   36      H       2.0049834556    -2.8608970127    -2.3535642870
   37      H       1.8215526416    -4.5780696160    -1.9979482891
   38      H       4.0741114640    -2.7775595599    -0.9927563879
   39      H       4.1991793528    -4.0544667907    -2.1986945002
   40      H       3.8500613118    -4.4628903206    -0.5184041960
   41      H      -2.0837914633     2.1352857816     1.8108804881
   42      H      -1.5920892266     0.4555118839     2.0044110097
   43      H      -2.8188333985     1.5885091606    -0.5460454943
   44      H      -3.7517565821     0.8315708580     0.7409357440
   45      H      -1.4580470275    -0.6097595589    -0.6210776103
   46      H      -3.0549852305    -0.5766807845    -1.3448507411
   47      H      -2.6299977919    -1.5308599657     1.5090950585
   48      H      -2.4799110673    -2.6161769663     0.1283296447
   49      H      -4.9921253239    -0.9914144212     0.6956613240
   50      H      -4.7154871396    -2.6166018520     1.3129481048
   51      H      -4.8353387159    -1.8524348350    -1.6423950837
   52      H      -6.0690266804    -2.7161911798    -0.7316018985
   53      H      -4.5003038030    -3.4692178331    -1.0227271004
 ----------------------------------------------------------------

    9   -1179.5525161583      2.79e-06  Convergence criterion met
 Total energy in the final basis set =    -1179.5525161583

                    Orbital Energies (a.u.)
 --------------------------------------------------------------

 Alpha MOs
 -- Occupied --
-88.8938 -10.2094 -10.2074 -10.1970 -10.1941 -10.1888 -10.1877 -10.1857
-10.1820 -10.1801 -10.1783 -10.1761 -10.1747 -10.1732 -10.1729 -10.1713
-10.1706 -10.1684 -10.1674 -10.1652 -10.1642  -7.9558  -5.9199  -5.9163
 -5.9126  -0.8872  -0.8150  -0.8112  -0.7986  -0.7848  -0.7687  -0.7656
 -0.7349  -0.7189  -0.6886  -0.6844  -0.6497  -0.6398  -0.6196  -0.6064
 -0.5878  -0.5677  -0.5604  -0.5471  -0.5236  -0.5192  -0.4818  -0.4708
 -0.4672  -0.4656  -0.4571  -0.4526  -0.4377  -0.4350  -0.4305  -0.4220
 -0.4176  -0.4115  -0.4024  -0.3969  -0.3919  -0.3852  -0.3787  -0.3771
 -0.3634  -0.3611  -0.3598  -0.3555  -0.3516  -0.3459  -0.3418  -0.3330
 -0.3276  -0.3225  -0.3170  -0.3154  -0.3118  -0.3093  -0.3077  -0.3022
 -0.2947  -0.2655  -0.2340  -0.1952

          Ground-State Mulliken Net Atomic Charges

     Atom                 Charge (a.u.)
  ----------------------------------------
      1 C                    -0.376480
      2 C                    -0.060048
      3 C                    -0.205578
      4 S                     0.226278
      5 C                    -0.214190
      6 C                    -0.108466
      7 C                    -0.328678
      8 C                     0.144560
      9 C                    -0.355486
     10 C                    -0.271395
     11 C                    -0.259392
     12 C                    -0.252573
     13 C                    -0.248713
     14 C                    -0.444674
     15 C                     0.119332
     16 C                    -0.352722
     17 C                    -0.266308
     18 C                    -0.272831
     19 C                    -0.255924
     20 C                    -0.258391
     21 C                    -0.443827
     22 H                     0.143933
     23 H                     0.155949
     24 H                     0.142248
     25 H                     0.144381
     26 H                     0.151592
     27 H                     0.144365
     28 H                     0.140146
     29 H                     0.146127
     30 H                     0.154379
     31 H                     0.128124
     32 H                     0.138446
     33 H                     0.140668
     34 H                     0.127139
     35 H                     0.123815
     36 H                     0.130192
     37 H                     0.127429
     38 H                     0.148315
     39 H                     0.140785
     40 H                     0.139744
     41 H                     0.148195
     42 H                     0.146906
     43 H                     0.147093
     44 H                     0.131549
     45 H                     0.147140
     46 H                     0.135192
     47 H                     0.130791
     48 H                     0.132354
     49 H                     0.134745
     50 H                     0.131086
     51 H                     0.147530
     52 H                     0.142705
     53 H                     0.142443
  ----------------------------------------
  Sum of atomic charges =     0.000000

                    Cartesian Multipole Moments
 -----------------------------------------------------------------
    Charge (ESU x 10^10)
                 0.0000
    Dipole Moment (Debye)
         X      -0.5890      Y      -0.6525      Z       0.7300
       Tot       1.1426
    Quadrupole Moments (Debye-Ang)
        XX    -134.1495     XY      -3.9545     YY    -142.6509
        XZ      -0.2972     YZ      -1.6849     ZZ    -137.6557

 Total job time:  151.01s(wall), 150.45s(cpu)
        *  Thank you very much for using Q-Chem.  Have a nice day.  *
