 Q-Chem 5.2, Q-Chem, Inc., Pleasanton, CA (2019)
 Q-Chem 5.2.1 for Intel X86 EM64T Linux

User input:
--------------------------------------------------------------
$molecule
0 1
C        -4.08446266200000    1.64549119510000    1.67306544970000
C        -3.49232585190000    1.87866169720000    0.50782568750000
C        -2.41909436580000    1.09686097810000   -0.08983449650000
C        -1.88940784350000   -0.06066056870000    0.47442051320000
C        -0.87550667960000   -0.80907331190000   -0.11152472080000
C        -0.49661448920000   -2.06944815530000    0.54635053540000
C        -0.18730798160000   -2.16332300210000    1.82931763680000
C        -0.31593455030000   -0.35561463120000   -1.31580604220000
O         0.71017701280000   -0.92306957560000   -2.01145217370000
C         1.72889355990000   -1.65230204450000   -1.35239762120000
C         2.31434290600000   -0.97046938700000   -0.14169105530000
C         2.34142334740000    0.41317523140000   -0.04070202190000
C         2.88099190250000    1.02164691500000    1.07920405370000
C         3.41253804200000    0.25420335910000    2.10023302600000
C         3.40542781770000   -1.12682603660000    1.99638226150000
C         2.85484649210000   -1.73552266500000    0.88406581890000
C        -0.83916080580000    0.79238276210000   -1.91072613540000
C        -1.86843275990000    1.48207580720000   -1.31435949580000
F        -2.33861233910000    2.58310220560000   -1.94191832030000
H        -4.87390951660000    2.28268340720000    2.03197422390000
H        -3.81439873680000    0.82297147840000    2.31282790690000
H        -3.81137336970000    2.72667086700000   -0.08414162740000
H        -2.30302409130000   -0.42620911150000    1.40087706930000
H        -0.53693815690000   -2.95686362900000   -0.07297882490000
H        -0.13172684740000   -1.29141059100000    2.45961069160000
H         0.04418151430000   -3.10692395070000    2.29270738650000
H         2.50515820700000   -1.75636695840000   -2.12151886750000
H         1.38978805840000   -2.65984003760000   -1.08592093500000
H         1.93869625780000    1.01818821210000   -0.83914879540000
H         2.88834281600000    2.09914230730000    1.15045953800000
H         3.83387675870000    0.72960206980000    2.97349485930000
H         3.82424692500000   -1.73152987490000    2.78718146960000
H         2.84294487550000   -2.81339667790000    0.80840569150000
H        -0.42477504970000    1.13471702800000   -2.84552326420000
$end

$rem
BASIS = 6-31G*
GUI = 2
METHOD = B3LYP
PRINT_ORBITALS false
MOLDEN_FORMAT false
--------------------------------------------------------------

             Standard Nuclear Orientation (Angstroms)
    I     Atom           X                Y                Z
 ----------------------------------------------------------------
    1      C       4.0593242693    -2.3904374983    -0.3392695838
    2      C       3.8366952209    -1.0957822245    -0.5318370191
    3      C       2.6681698599    -0.3439819102    -0.0964284170
    4      C       1.6216332006    -0.8879283188     0.6436330565
    5      C       0.5176310020    -0.1583074734     1.0682288514
    6      C      -0.4526119844    -0.8415819141     1.9380957818
    7      C      -1.0026818003    -2.0094432175     1.6482496859
    8      C       0.4205204208     1.1910946810     0.6957740155
    9      O      -0.6010579846     2.0500348848     0.9740416601
   10      C      -1.9296279492     1.5856165079     1.1261393936
   11      C      -2.3997525005     0.6449382585     0.0456004375
   12      C      -1.8822639768     0.7133854075    -1.2400609413
   13      C      -2.3243613962    -0.1597858457    -2.2186739741
   14      C      -3.2982772004    -1.0978117176    -1.9260880173
   15      C      -3.8320725773    -1.1582431029    -0.6495739078
   16      C      -3.3815907165    -0.2951343263     0.3317560993
   17      C       1.4630296881     1.7650468301    -0.0317883563
   18      C       2.5551169404     1.0148414010    -0.3995758877
   19      F       3.5370644540     1.6279764291    -1.0974315768
   20      H       4.9588016355    -2.8586810171    -0.6994698537
   21      H       3.3671796149    -3.0330702181     0.1771877471
   22      H       4.5742879507    -0.5083661705    -1.0630954468
   23      H       1.6744708107    -1.9237529726     0.9391010943
   24      H      -0.6623780216    -0.3578127063     2.8839639761
   25      H      -0.8148690852    -2.5017452175     0.7085928470
   26      H      -1.6769942721    -2.5059284350     2.3246410786
   27      H      -2.5263007461     2.5063304817     1.0910516178
   28      H      -2.0826091265     1.1293738689     2.1108091792
   29      H      -1.1302824926     1.4506994368    -1.4780503009
   30      H      -1.9077141432    -0.1027915032    -3.2133017496
   31      H      -3.6431702098    -1.7784216123    -2.6902447167
   32      H      -4.5969439355    -1.8841669447    -0.4162373580
   33      H      -3.7935079199    -0.3490667287     1.3293000856
   34      H       1.4016307303     2.8064195781    -0.3047845912
 ----------------------------------------------------------------

    9    -831.8364801211      3.55e-06  Convergence criterion met
 Total energy in the final basis set =     -831.8364801211

                    Orbital Energies (a.u.)
 --------------------------------------------------------------

 Alpha MOs
 -- Occupied --
-24.7047 -19.1809 -10.2684 -10.2545 -10.2482 -10.1968 -10.1950 -10.1939
-10.1927 -10.1925 -10.1879 -10.1874 -10.1870 -10.1863 -10.1862 -10.1858
-10.1848 -10.1820 -10.1755  -1.2154  -1.0716  -0.8706  -0.8609  -0.8037
 -0.7945  -0.7701  -0.7480  -0.7338  -0.7277  -0.6887  -0.6389  -0.6221
 -0.6088  -0.5899  -0.5795  -0.5554  -0.5437  -0.5189  -0.5139  -0.4897
 -0.4849  -0.4702  -0.4598  -0.4565  -0.4480  -0.4455  -0.4382  -0.4320
 -0.4241  -0.4203  -0.4162  -0.3991  -0.3845  -0.3697  -0.3671  -0.3602
 -0.3525  -0.3447  -0.3419  -0.3337  -0.3216  -0.2836  -0.2746  -0.2528
 -0.2438  -0.2344  -0.2070

          Ground-State Mulliken Net Atomic Charges

     Atom                 Charge (a.u.)
  ----------------------------------------
      1 C                    -0.353757
      2 C                    -0.111096
      3 C                     0.113471
      4 C                    -0.264727
      5 C                     0.130462
      6 C                    -0.156239
      7 C                    -0.313555
      8 C                     0.320412
      9 O                    -0.535685
     10 C                    -0.098471
     11 C                     0.117965
     12 C                    -0.161833
     13 C                    -0.132415
     14 C                    -0.127155
     15 C                    -0.131668
     16 C                    -0.162647
     17 C                    -0.266939
     18 C                     0.312574
     19 F                    -0.294134
     20 H                     0.143751
     21 H                     0.139778
     22 H                     0.141115
     23 H                     0.138850
     24 H                     0.143707
     25 H                     0.153806
     26 H                     0.139867
     27 H                     0.169786
     28 H                     0.145432
     29 H                     0.143587
     30 H                     0.130995
     31 H                     0.127820
     32 H                     0.126824
     33 H                     0.119802
     34 H                     0.150314
  ----------------------------------------
  Sum of atomic charges =     0.000000

                    Cartesian Multipole Moments
 -----------------------------------------------------------------
    Charge (ESU x 10^10)
                -0.0000
    Dipole Moment (Debye)
         X      -2.2267      Y      -1.2197      Z       0.6512
       Tot       2.6211
    Quadrupole Moments (Debye-Ang)
        XX    -108.1936     XY      -0.4116     YY    -106.0983
        XZ      -3.4376     YZ       0.1520     ZZ    -105.3448

 Total job time:  82.55s(wall), 82.32s(cpu)
        *  Thank you very much for using Q-Chem.  Have a nice day.  *
