 Q-Chem 5.2, Q-Chem, Inc., Pleasanton, CA (2019)
 Q-Chem 5.2.1 for Intel X86 EM64T Linux

User input:
--------------------------------------------------------------
$molecule
0 1
C        -1.55056978210000    3.00353588020000    1.05471554830000
C        -1.12589550410000    2.66030396820000   -0.15948892110000
C         0.09848546780000    1.96257707430000   -0.44707752160000
C         1.07221020120000    1.49588657350000    0.39760538370000
C         2.15923887050000    0.88376192820000   -0.25512089240000
C         3.28378240740000    0.26174387470000    0.51369188860000
C         2.86279609280000   -1.11119015460000    1.05868749900000
C         2.72071490530000   -2.15124755710000   -0.05186335330000
C         1.88039996630000   -3.36369772310000    0.35224427300000
C         0.40440748330000   -3.05076015700000    0.61080820210000
C        -0.31219059380000   -2.45848887210000   -0.60136017630000
C        -1.81221696080000   -2.26778525850000   -0.37462013180000
C        -2.12699290090000   -1.14639760550000    0.61354651340000
C        -3.63101344120000   -0.92646312820000    0.75947811110000
C        -3.98162376960000    0.28567577720000    1.62225435930000
C        -3.59576989380000    0.12304841370000    3.09074853800000
C        -4.05450752140000    1.31272942410000    3.92533393420000
C         2.01421569780000    0.87488724420000   -1.62726206740000
C         2.91421384330000    0.35026254360000   -2.61759252530000
C         2.67116511290000    0.31567188600000   -3.92530374370000
S         0.51885311130000    1.63213888370000   -2.10036721760000
H        -2.47180817370000    3.54227898520000    1.19185267420000
H        -0.99459246050000    2.76736386740000    1.94536143470000
H        -1.71921648480000    2.91567821410000   -1.02824843530000
H         1.01663161530000    1.59225879640000    1.46743855470000
H         3.53625272990000    0.91487628840000    1.35263892730000
H         4.17257646490000    0.15398564890000   -0.10870473890000
H         1.91180570900000   -0.99121402360000    1.57846023770000
H         3.59993784200000   -1.45278528920000    1.78859672740000
H         3.71570635540000   -2.49607493570000   -0.34509146700000
H         2.26949255450000   -1.68840080220000   -0.92936618740000
H         2.30749014350000   -3.81110091240000    1.25366903710000
H         1.94426157840000   -4.10670810850000   -0.44670238130000
H         0.31799175430000   -2.36737979460000    1.45583691660000
H        -0.09603831230000   -3.98029282960000    0.89478200070000
H        -0.16282855130000   -3.12359491520000   -1.45577072290000
H         0.12127011730000   -1.48972266390000   -0.85399870520000
H        -2.25004406730000   -3.20274394550000   -0.01608827880000
H        -2.28221385150000   -2.03005742620000   -1.33237902950000
H        -1.66144245520000   -0.22061534600000    0.26686833850000
H        -1.70220386020000   -1.39102225720000    1.58709913620000
H        -4.08855685480000   -1.82218114220000    1.18709690320000
H        -4.06110292750000   -0.78035212630000   -0.23479599970000
H        -5.05949790080000    0.45784823700000    1.56238011830000
H        -3.48028187170000    1.16741525050000    1.21635507370000
H        -2.51251314120000    0.02530616990000    3.17701224270000
H        -4.04641476740000   -0.79152473940000    3.48363358550000
H        -3.60043657350000    2.23086466780000    3.55907950240000
H        -3.77339837710000    1.18267410760000    4.96811567380000
H        -5.13570136000000    1.42248753730000    3.87313765060000
H         3.84853420600000   -0.03889995180000   -2.23512007620000
H         1.74794127330000    0.68882141690000   -4.33718844460000
H         3.38507961180000   -0.08700719540000   -4.62154880650000
$end

$rem
BASIS = 6-31G*
GUI = 2
METHOD = B3LYP
PRINT_ORBITALS false
MOLDEN_FORMAT false
--------------------------------------------------------------

             Standard Nuclear Orientation (Angstroms)
    I     Atom           X                Y                Z
 ----------------------------------------------------------------
    1      C       2.1104261603     2.7379941758    -0.7943413554
    2      C       1.0922587998     2.7136476366     0.0630916469
    3      C      -0.1719970854     2.0664064164    -0.1635681103
    4      C      -0.6200920696     1.3499413893    -1.2430669943
    5      C      -1.9447154474     0.8884868392    -1.1213619984
    6      C      -2.5763970388     0.0362987511    -2.1784010455
    7      C      -2.0812515473    -1.4130262266    -2.0622735611
    8      C      -2.6350916141    -2.1116989596    -0.8211662923
    9      C      -1.8373587512    -3.3509821437    -0.4121833531
   10      C      -0.4131171529    -3.0556918432     0.0649733753
   11      C      -0.3591154536    -2.1311779414     1.2798841204
   12      C       1.0567001055    -1.9440419185     1.8260566474
   13      C       1.9463922570    -1.1148694723     0.9019417143
   14      C       3.3273811115    -0.8778421462     1.5089283876
   15      C       4.1930376939     0.0737150772     0.6832355180
   16      C       4.5968119532    -0.4914824663    -0.6766630480
   17      C       5.5380239886     0.4506013337    -1.4175489497
   18      C      -2.5226222274     1.2525536246     0.0775379199
   19      C      -3.8509558226     0.9734826589     0.5504347481
   20      C      -4.3149649470     1.2997744157     1.7540156767
   21      S      -1.4094038962     2.1718136442     1.0517420860
   22      H       3.0226232486     3.2594006056    -0.5624734927
   23      H       2.0662629536     2.2490319544    -1.7519966451
   24      H       1.1814639894     3.2168475342     1.0174611678
   25      H      -0.0162872051     1.1594102392    -2.1125709706
   26      H      -2.2956356949     0.4302764906    -3.1582530526
   27      H      -3.6639997898     0.0607871915    -2.1044764476
   28      H      -0.9917086079    -1.3956902085    -2.0230775459
   29      H      -2.3730629870    -1.9683004291    -2.9563369368
   30      H      -3.6698261850    -2.4078839621    -1.0122041039
   31      H      -2.6500967189    -1.4124935151     0.0147323531
   32      H      -1.7879377766    -4.0406765420    -1.2589545400
   33      H      -2.3769990824    -3.8556853813     0.3931249417
   34      H       0.1631182489    -2.6197388105    -0.7513890695
   35      H       0.0625564640    -4.0050396201     0.3249570494
   36      H      -0.9919684263    -2.5497215764     2.0666565087
   37      H      -0.7575445588    -1.1495644159     1.0192857412
   38      H       1.5164445862    -2.9211987205     1.9939405599
   39      H       0.9933681800    -1.4393334814     2.7935131923
   40      H       1.4680881318    -0.1508970043     0.7122630093
   41      H       2.0556578710    -1.6285038297    -0.0532192308
   42      H       3.8433083265    -1.8348269851     1.6207930123
   43      H       3.2018328114    -0.4532907555     2.5083783060
   44      H       5.1002607707     0.3015116464     1.2490057324
   45      H       3.6493713387     1.0095710554     0.5343633923
   46      H       3.7061966725    -0.6548991922    -1.2853826555
   47      H       5.0871559803    -1.4576393453    -0.5352871829
   48      H       5.0587259648     1.4129297930    -1.5833572765
   49      H       5.8171618266     0.0349189466    -2.3832718464
   50      H       6.4455240443     0.6164007405    -0.8407425545
   51      H      -4.4934273404     0.4567684104    -0.1502248671
   52      H      -3.6986467926     1.8084524960     2.4769474718
   53      H      -5.3216353802     1.0675231604     2.0527723255
 ----------------------------------------------------------------

    9   -1179.5589010344      2.88e-06  Convergence criterion met
 Total energy in the final basis set =    -1179.5589010344

                    Orbital Energies (a.u.)
 --------------------------------------------------------------

 Alpha MOs
 -- Occupied --
-88.9023 -10.2197 -10.2154 -10.2018 -10.1970 -10.1961 -10.1892 -10.1875
-10.1861 -10.1806 -10.1787 -10.1696 -10.1690 -10.1683 -10.1663 -10.1643
-10.1634 -10.1633 -10.1627 -10.1623 -10.1604  -7.9640  -5.9280  -5.9245
 -5.9209  -0.8923  -0.8177  -0.8082  -0.8000  -0.7863  -0.7733  -0.7597
 -0.7348  -0.7139  -0.7024  -0.6784  -0.6484  -0.6273  -0.6144  -0.6003
 -0.5822  -0.5731  -0.5555  -0.5451  -0.5373  -0.5271  -0.4927  -0.4669
 -0.4644  -0.4624  -0.4575  -0.4543  -0.4466  -0.4361  -0.4232  -0.4198
 -0.4165  -0.4096  -0.4048  -0.3921  -0.3899  -0.3830  -0.3817  -0.3729
 -0.3650  -0.3633  -0.3579  -0.3527  -0.3493  -0.3428  -0.3405  -0.3296
 -0.3268  -0.3226  -0.3192  -0.3116  -0.3087  -0.3080  -0.3016  -0.2947
 -0.2878  -0.2692  -0.2467  -0.1987

          Ground-State Mulliken Net Atomic Charges

     Atom                 Charge (a.u.)
  ----------------------------------------
      1 C                    -0.339203
      2 C                    -0.090466
      3 C                    -0.127429
      4 C                    -0.156295
      5 C                     0.155993
      6 C                    -0.344853
      7 C                    -0.257364
      8 C                    -0.272561
      9 C                    -0.257382
     10 C                    -0.260615
     11 C                    -0.268492
     12 C                    -0.252473
     13 C                    -0.271829
     14 C                    -0.251786
     15 C                    -0.257417
     16 C                    -0.248513
     17 C                    -0.444019
     18 C                    -0.212090
     19 C                    -0.052134
     20 C                    -0.378981
     21 S                     0.230169
     22 H                     0.152607
     23 H                     0.146219
     24 H                     0.140522
     25 H                     0.134130
     26 H                     0.144326
     27 H                     0.144153
     28 H                     0.143145
     29 H                     0.133073
     30 H                     0.123974
     31 H                     0.159409
     32 H                     0.122804
     33 H                     0.126896
     34 H                     0.135936
     35 H                     0.125788
     36 H                     0.122264
     37 H                     0.153999
     38 H                     0.122029
     39 H                     0.124283
     40 H                     0.146093
     41 H                     0.133041
     42 H                     0.122583
     43 H                     0.122213
     44 H                     0.119107
     45 H                     0.137236
     46 H                     0.132245
     47 H                     0.127479
     48 H                     0.139459
     49 H                     0.138370
     50 H                     0.141256
     51 H                     0.140586
     52 H                     0.156599
     53 H                     0.145917
  ----------------------------------------
  Sum of atomic charges =     0.000000

                    Cartesian Multipole Moments
 -----------------------------------------------------------------
    Charge (ESU x 10^10)
                -0.0000
    Dipole Moment (Debye)
         X      -0.3775      Y      -0.2037      Z      -0.9518
       Tot       1.0440
    Quadrupole Moments (Debye-Ang)
        XX    -136.3053     XY       3.9535     YY    -142.5956
        XZ       0.3432     YZ       2.1865     ZZ    -136.3652

 Total job time:  155.69s(wall), 155.28s(cpu)
        *  Thank you very much for using Q-Chem.  Have a nice day.  *
