 Q-Chem 5.2, Q-Chem, Inc., Pleasanton, CA (2019)
 Q-Chem 5.2.1 for Intel X86 EM64T Linux

User input:
--------------------------------------------------------------
$molecule
0 1
C         4.23992709290000    1.83870312240000   -0.15190658060000
C         2.94448737590000    2.11462978790000   -0.03196805130000
C         1.90400963820000    1.11961105300000    0.00621028180000
C         0.54705880600000    1.26349734010000    0.12695002040000
C        -0.00983448980000   -0.04193391420000    0.11100177600000
C        -1.44640736710000   -0.30608188430000    0.21820333040000
O        -1.98661131980000   -1.38757744960000    0.21958212320000
O        -2.12642988070000    0.84732163700000    0.33110352990000
C        -3.54476611450000    0.74976523010000    0.43047742680000
C        -4.19308071870000    0.60073889170000   -0.93902410100000
C         1.07015757030000   -0.91356821150000   -0.02214076430000
C         1.25334721150000   -2.33956313670000   -0.10829190430000
C         0.30995075830000   -3.27652660820000   -0.06909669550000
O         2.20874779930000   -0.19614233730000   -0.08334929340000
H         4.98326463420000    2.61548623340000   -0.17546488590000
H         4.58960985610000    0.82343184240000   -0.22943464730000
H         2.59206561090000    3.13337171510000    0.04606584320000
H        -0.00068908510000    2.17813627400000    0.21739112940000
H        -3.85841162860000    1.67671132730000    0.91561135960000
H        -3.79946913790000   -0.10739156700000    1.06299494550000
H        -3.90288067310000    1.42629419080000   -1.58471931370000
H        -5.27403029860000    0.59484028110000   -0.83196489810000
H        -3.87899680980000   -0.33387650090000   -1.39717330730000
H         2.29634470490000   -2.61325998600000   -0.21500862710000
H        -0.73050159660000   -3.02967700790000    0.03700358460000
H         0.56989477990000   -4.31846056380000   -0.14449036310000
$end

$rem
BASIS = 6-31G*
GUI = 2
METHOD = B3LYP
PRINT_ORBITALS false
MOLDEN_FORMAT false
--------------------------------------------------------------

             Standard Nuclear Orientation (Angstroms)
    I     Atom           X                Y                Z
 ----------------------------------------------------------------
    1      C       4.4734252819     1.2534300121    -0.1600708873
    2      C       3.2258789932     1.6966273722    -0.0340185433
    3      C       2.0641655522     0.8465032746     0.0086978504
    4      C       0.7383394235     1.1668589028     0.1357972485
    5      C       0.0151086942    -0.0543222200     0.1220412898
    6      C      -1.4431856115    -0.1280356197     0.2358481775
    7      O      -2.1204457202    -1.1294151320     0.2394100481
    8      O      -1.9656699042     1.1044308909     0.3522664796
    9      C      -3.3840895064     1.1934897341     0.4582119874
   10      C      -4.0526010213     1.1319582745    -0.9083023170
   11      C       0.9709414541    -1.0598446507    -0.0163946549
   12      C       0.9652828044    -2.4974691382    -0.1038349360
   13      C      -0.0925749682    -3.3027615059    -0.0605358052
   14      O       2.1934371581    -0.4977555054    -0.0826828522
   15      H       5.3120319051     1.9261256695    -0.1868510959
   16      H       4.6866857565     0.2011612875    -0.2395372910
   17      H       3.0103602986     2.7526952814     0.0459674976
   18      H       0.3155954987     2.1453066115     0.2290677226
   19      H      -3.5713339124     2.1530999331     0.9450849757
   20      H      -3.7460275197     0.3765241689     1.0916454538
   21      H      -3.6596740505     1.9129552353    -1.5550882699
   22      H      -5.1245004599     1.2676648703    -0.7962140742
   23      H      -3.8658035933     0.1646628045    -1.3681952652
   24      H       1.9629192567    -2.9053869027    -0.2154897699
   25      H      -1.0912093307    -2.9217924246     0.0504825116
   26      H       0.0282373051    -4.3697051773    -0.1374582596
 ----------------------------------------------------------------

    9    -652.0293433544      7.12e-06  Convergence criterion met
 Total energy in the final basis set =     -652.0293433544

                    Orbital Energies (a.u.)
 --------------------------------------------------------------

 Alpha MOs
 -- Occupied --
-19.2262 -19.1887 -19.1332 -10.3172 -10.2618 -10.2464 -10.2414 -10.2011
-10.2006 -10.1965 -10.1913 -10.1844 -10.1797 -10.1788  -1.1326  -1.1073
 -1.0166  -0.8249  -0.8218  -0.7822  -0.7685  -0.7212  -0.6793  -0.6379
 -0.6171  -0.5854  -0.5720  -0.5445  -0.5052  -0.4901  -0.4827  -0.4756
 -0.4731  -0.4583  -0.4480  -0.4290  -0.4244  -0.4182  -0.4035  -0.3853
 -0.3803  -0.3744  -0.3714  -0.3572  -0.3401  -0.3240  -0.2984  -0.2944
 -0.2741  -0.2725  -0.2024

          Ground-State Mulliken Net Atomic Charges

     Atom                 Charge (a.u.)
  ----------------------------------------
      1 C                    -0.355094
      2 C                    -0.107317
      3 C                     0.334866
      4 C                    -0.230078
      5 C                    -0.014132
      6 C                     0.590820
      7 O                    -0.501807
      8 O                    -0.464115
      9 C                    -0.041127
     10 C                    -0.464722
     11 C                     0.326730
     12 C                    -0.143189
     13 C                    -0.354128
     14 O                    -0.484680
     15 H                     0.146927
     16 H                     0.157401
     17 H                     0.142563
     18 H                     0.158752
     19 H                     0.150266
     20 H                     0.167110
     21 H                     0.156149
     22 H                     0.150716
     23 H                     0.178736
     24 H                     0.143770
     25 H                     0.212361
     26 H                     0.143222
  ----------------------------------------
  Sum of atomic charges =     0.000000

                    Cartesian Multipole Moments
 -----------------------------------------------------------------
    Charge (ESU x 10^10)
                 0.0000
    Dipole Moment (Debye)
         X       0.0190      Y       1.6238      Z      -0.0695
       Tot       1.6254
    Quadrupole Moments (Debye-Ang)
        XX     -72.9581     XY      -3.9999     YY     -74.6290
        XZ      -0.6085     YZ       1.0096     ZZ     -83.4948

 Total job time:  39.22s(wall), 39.09s(cpu)
        *  Thank you very much for using Q-Chem.  Have a nice day.  *
