 Q-Chem 5.2, Q-Chem, Inc., Pleasanton, CA (2019)
 Q-Chem 5.2.1 for Intel X86 EM64T Linux

User input:
--------------------------------------------------------------
$molecule
0 1
C         3.98031912430000    0.14049756310000   -0.11793373880000
C         2.81989559810000    0.76473857760000    0.04408660050000
C         1.49422447300000    0.15937219520000    0.03229869750000
C         1.27803924670000   -1.21262135910000   -0.10412525110000
C        -0.00374783510000   -1.71948427170000   -0.08947992100000
C        -1.12191118380000   -0.90079333440000    0.03445988350000
C        -2.47906491840000   -1.53513721860000    0.07678420120000
C        -0.92395835280000    0.48036076250000    0.15142992050000
C        -2.01116033790000    1.45696891830000    0.27190322880000
C        -3.13729146030000    1.46603306940000   -0.42609044280000
C         0.37704429230000    0.97695077180000    0.17148199710000
H         4.91296592210000    0.67786358500000   -0.09508573070000
H         4.05419349730000   -0.92090849100000   -0.28128943460000
H         2.82091801900000    1.83733854740000    0.19922118940000
H         2.11345009880000   -1.88731969420000   -0.20706550580000
H        -0.14981891100000   -2.78763608230000   -0.17492129220000
H        -2.41407768570000   -2.52743131050000    0.51940013360000
H        -2.87966302570000   -1.64864886600000   -0.93093739170000
H        -3.17650796130000   -0.93357304940000    0.65466418390000
H        -1.81438058010000    2.26445424670000    0.96812673570000
H        -3.36055341440000    0.72190166480000   -1.17049239360000
H        -3.87169571040000    2.24360664980000   -0.29697985340000
H         0.51915325580000    2.04411722980000    0.28130332950000
$end

$rem
BASIS = 6-31G*
GUI = 2
METHOD = B3LYP
PRINT_ORBITALS false
MOLDEN_FORMAT false
--------------------------------------------------------------

             Standard Nuclear Orientation (Angstroms)
    I     Atom           X                Y                Z
 ----------------------------------------------------------------
    1      C       3.9953185323     0.2466896635    -0.1376934889
    2      C       2.8196830366     0.8450146767     0.0119679772
    3      C       1.5101991528     0.2053865298     0.0237635416
    4      C       1.3292909754    -1.1750964016    -0.0724287994
    5      C       0.0612153077    -1.7143994617    -0.0372303454
    6      C      -1.0773942294    -0.9217647540     0.0686173876
    7      C      -2.4173775501    -1.5896150249     0.1354790832
    8      C      -0.9150288790     0.4668418084     0.1451893148
    9      C      -2.0268165063     1.4179793636     0.2429189788
   10      C      -3.1555937292     1.3778399051    -0.4496843957
   11      C       0.3726626050     0.9973718727     0.1448754526
   12      H       4.9137309432     0.8084934932    -0.1346238079
   13      H       4.0961682027    -0.8166876324    -0.2710478614
   14      H       2.7933794573     1.9212841836     0.1364290213
   15      H       2.1815786249    -1.8305765760    -0.1600491997
   16      H      -0.0573155461    -2.7879889527    -0.0914642754
   17      H      -2.3247807273    -2.5668035497     0.6059131214
   18      H      -2.8189231104    -1.7422974150    -0.8666764922
   19      H      -3.1279335848    -0.9900314470     0.6992708683
   20      H      -1.8483511939     2.2499086505     0.9148756695
   21      H      -3.3623761792     0.6071503793    -1.1714810325
   22      H      -3.9094854276     2.1394873993    -0.3393203549
   23      H       0.4873562457     2.0705724017     0.2235261037
 ----------------------------------------------------------------

    8    -426.3581437852      4.72e-06  Convergence criterion met
 Total energy in the final basis set =     -426.3581437852

                    Orbital Energies (a.u.)
 --------------------------------------------------------------

 Alpha MOs
 -- Occupied --
-10.1921 -10.1899 -10.1890 -10.1890 -10.1867 -10.1825 -10.1823 -10.1810
-10.1792 -10.1757 -10.1755  -0.8662  -0.8057  -0.7797  -0.7470  -0.7274
 -0.6829  -0.6189  -0.5981  -0.5855  -0.5325  -0.4956  -0.4825  -0.4637
 -0.4402  -0.4301  -0.4211  -0.4189  -0.4088  -0.3800  -0.3761  -0.3643
 -0.3591  -0.3365  -0.3279  -0.2991  -0.2772  -0.2327  -0.2138

          Ground-State Mulliken Net Atomic Charges

     Atom                 Charge (a.u.)
  ----------------------------------------
      1 C                    -0.356062
      2 C                    -0.110961
      3 C                     0.183664
      4 C                    -0.179230
      5 C                    -0.184662
      6 C                     0.129843
      7 C                    -0.535094
      8 C                     0.105064
      9 C                    -0.138900
     10 C                    -0.334077
     11 C                    -0.267211
     12 H                     0.142427
     13 H                     0.140972
     14 H                     0.125257
     15 H                     0.124666
     16 H                     0.121108
     17 H                     0.153512
     18 H                     0.161695
     19 H                     0.169011
     20 H                     0.135136
     21 H                     0.147764
     22 H                     0.142392
     23 H                     0.123685
  ----------------------------------------
  Sum of atomic charges =     0.000000

                    Cartesian Multipole Moments
 -----------------------------------------------------------------
    Charge (ESU x 10^10)
                 0.0000
    Dipole Moment (Debye)
         X      -0.4454      Y      -0.1250      Z       0.0087
       Tot       0.4627
    Quadrupole Moments (Debye-Ang)
        XX     -60.8716     XY      -0.3575     YY     -59.9492
        XZ       0.4052     YZ       1.6566     ZZ     -68.8740

 Total job time:  22.77s(wall), 22.68s(cpu)
        *  Thank you very much for using Q-Chem.  Have a nice day.  *
