 Q-Chem 5.2, Q-Chem, Inc., Pleasanton, CA (2019)
 Q-Chem 5.2.1 for Intel X86 EM64T Linux

User input:
--------------------------------------------------------------
$molecule
0 1
C         0.60013987870000   -3.45029960050000   -0.07865939890000
C         0.51854681020000   -2.55240379820000    0.88856518760000
C         0.03593073550000   -1.17189414180000    0.71197751320000
C        -1.12241972010000   -0.80128676330000    1.38308373220000
C        -1.69017999000000    0.45978573800000    1.26840304700000
C        -3.01413351080000    0.72378662000000    1.93323225070000
C        -4.13074977620000   -0.23252691370000    1.48810953620000
C        -4.70545173710000    0.07414484030000    0.10365142730000
C        -3.75330719650000   -0.14164638760000   -1.07322528740000
C        -3.31733210790000   -1.59223078520000   -1.26061813160000
C        -2.36394367140000   -1.73433773560000   -2.44036325990000
C        -1.01792973940000    1.41537155170000    0.49814576690000
C        -1.45477064500000    2.80959621240000    0.35318334640000
C        -1.75896735520000    3.62240391690000    1.35366823740000
C         0.14126414590000    1.03999138110000   -0.17782120630000
C         0.67883773480000   -0.23355000890000   -0.10020437280000
C         1.97577561970000   -0.53312566300000   -0.79684646860000
C         3.14148829940000   -0.40310144170000    0.18995950670000
C         4.49167067640000   -0.78033146360000   -0.41874656620000
C         4.93515566080000    0.08655145180000   -1.59961773740000
C         5.04428815320000    1.58190643410000   -1.29776530410000
C         6.07687136710000    1.90395354750000   -0.22412540160000
H         0.93061339270000   -4.45874693250000    0.10664849710000
H         0.32536912950000   -3.21646042420000   -1.09423556480000
H         0.75943428350000   -2.83061506980000    1.90862967560000
H        -1.60582755950000   -1.53808850150000    2.01082827290000
H        -3.33718423010000    1.74530309300000    1.73397983270000
H        -2.88528451750000    0.61659214940000    3.01480780450000
H        -4.94855918180000   -0.14736518180000    2.20915347870000
H        -3.77959612420000   -1.26355934700000    1.51974204660000
H        -5.03953486200000    1.11526141580000    0.09012112630000
H        -5.58849602390000   -0.55447765380000   -0.04357167330000
H        -2.86835501560000    0.48096362320000   -0.94774862390000
H        -4.26076027210000    0.18929017060000   -1.98386267250000
H        -4.19771193720000   -2.21978374360000   -1.42037838840000
H        -2.80945188890000   -1.94528437360000   -0.36255610680000
H        -2.83143444820000   -1.38432611300000   -3.35859626550000
H        -2.07619722420000   -2.77450391380000   -2.57716842660000
H        -1.46456942350000   -1.14671842670000   -2.26599932600000
H        -1.45559075090000    3.18773110220000   -0.66288322730000
H        -1.71878491750000    3.30171285680000    2.38147166060000
H        -2.03795078930000    4.64906258800000    1.18430814570000
H         0.64632891350000    1.78365571570000   -0.78040147640000
H         2.11049636480000    0.16966809420000   -1.62003286680000
H         1.97222896780000   -1.54385088720000   -1.20407758980000
H         2.94981295630000   -1.06645172470000    1.03740235160000
H         3.17349521880000    0.61688618170000    0.57700199070000
H         4.44233651980000   -1.81809471560000   -0.75946178670000
H         5.25053127160000   -0.73337997390000    0.36479032850000
H         4.23917757050000   -0.05302805900000   -2.42937914520000
H         5.91180399630000   -0.27309783390000   -1.93448000780000
H         4.07131070220000    1.97096592240000   -0.99347984310000
H         5.32435086770000    2.09476024030000   -2.22167658710000
H         5.77848408170000    1.49856143990000    0.73918424100000
H         6.18751692960000    2.98097238150000   -0.11760651210000
H         7.04529078530000    1.48490783770000   -0.48977870380000
$end

$rem
BASIS = 6-31G*
GUI = 2
METHOD = B3LYP
PRINT_ORBITALS false
MOLDEN_FORMAT false
--------------------------------------------------------------

             Standard Nuclear Orientation (Angstroms)
    I     Atom           X                Y                Z
 ----------------------------------------------------------------
    1      C      -0.3917042205     3.3351107124     0.9695430319
    2      C      -0.2448859656     2.2014868274     1.6341775095
    3      C       0.1385817631     0.9163687288     1.0248070414
    4      C       1.3464487962     0.3513927554     1.4138681471
    5      C       1.8280714175    -0.8379481088     0.8853653593
    6      C       3.2051327643    -1.3019397340     1.2764677499
    7      C       4.3111786443    -0.2805540059     0.9716146774
    8      C       4.7010885176    -0.1992095091    -0.5056826953
    9      C       3.6296505626     0.3544804285    -1.4456997396
   10      C       3.2532260500     1.8076276394    -1.1699222561
   11      C       2.1762544661     2.2914019006    -2.1327499331
   12      C       1.0191891950    -1.5276317718    -0.0248032621
   13      C       1.3602648201    -2.8338863029    -0.6019280342
   14      C       1.7363071226    -3.8992963391     0.0891983375
   15      C      -0.1898313898    -0.9567006176    -0.4170773089
   16      C      -0.6452277457     0.2543921628     0.0756557271
   17      C      -1.9973448763     0.7609117824    -0.3394596779
   18      C      -3.0436966291     0.3824715740     0.7148217839
   19      C      -4.4340516423     0.9399904326     0.4116655808
   20      C      -5.0598092725     0.4458149835    -0.8947951561
   21      C      -5.2127802719    -1.0720199523    -1.0038286209
   22      C      -6.1271999943    -1.6615604517     0.0633750373
   23      H      -0.6432892520     4.2577366058     1.4655109885
   24      H      -0.2517254860     3.3890190174    -0.0977313106
   25      H      -0.3483522047     2.1882869980     2.7135663866
   26      H       1.9394965784     0.8743795518     2.1523817135
   27      H       3.4470087902    -2.2330792943     0.7645748849
   28      H       3.2108255785    -1.4986056687     2.3531239151
   29      H       5.2026246492    -0.5790282294     1.5303688896
   30      H       4.0221597306     0.7070532445     1.3299962729
   31      H       4.9747761099    -1.2012314109    -0.8473924218
   32      H       5.5930876807     0.4287921903    -0.5866731411
   33      H       2.7335155219    -0.2616410396    -1.3835361938
   34      H       4.0075140370     0.2814930019    -2.4695064142
   35      H       4.1410456425     2.4381533220    -1.2628116188
   36      H       2.8746435187     1.9053677093    -0.1519700474
   37      H       2.5125710285     2.2029741886    -3.1639042981
   38      H       1.9307124483     3.3336168992    -1.9405095526
   39      H       1.2734720682     1.6954938077    -2.0125386264
   40      H       1.2207918989    -2.9132178996    -1.6741368532
   41      H       1.8350475227    -3.8776500112     1.1618674528
   42      H       1.9377408225    -4.8428903304    -0.3899649626
   43      H      -0.8017511943    -1.4928948646    -1.1307158213
   44      H      -2.2658972190     0.3185870165    -1.2996331159
   45      H      -1.9875643254     1.8448920590    -0.4503936427
   46      H      -2.7179279215     0.7790846519     1.6799669678
   47      H      -3.0845783987    -0.7042285139     0.8076263041
   48      H      -4.3695639994     2.0304942992     0.3656661402
   49      H      -5.0965205889     0.6904079128     1.2428378681
   50      H      -4.4601685928     0.7984140872    -1.7365058328
   51      H      -6.0484020839     0.9029657830    -0.9897673624
   52      H      -4.2330184212    -1.5487989810    -0.9456004404
   53      H      -5.6271258947    -1.3011357410    -1.9891660604
   54      H      -5.6958109399    -1.5469580300     1.0543911669
   55      H      -6.2822405157    -2.7232050220    -0.1167125140
   56      H      -7.0962692562    -1.1668661181     0.0496114858
 ----------------------------------------------------------------

    8    -858.7876304542      5.78e-06  Convergence criterion met
 Total energy in the final basis set =     -858.7876304542

                    Orbital Energies (a.u.)
 --------------------------------------------------------------

 Alpha MOs
 -- Occupied --
-10.1888 -10.1877 -10.1871 -10.1861 -10.1852 -10.1848 -10.1791 -10.1781
-10.1772 -10.1767 -10.1745 -10.1736 -10.1727 -10.1722 -10.1708 -10.1703
-10.1700 -10.1663 -10.1661 -10.1620 -10.1593 -10.1581  -0.8688  -0.8187
 -0.8032  -0.7987  -0.7780  -0.7685  -0.7585  -0.7377  -0.7154  -0.7080
 -0.6832  -0.6549  -0.6308  -0.6222  -0.6043  -0.5945  -0.5821  -0.5675
 -0.5455  -0.5411  -0.5297  -0.4912  -0.4876  -0.4757  -0.4681  -0.4582
 -0.4559  -0.4453  -0.4371  -0.4294  -0.4281  -0.4245  -0.4184  -0.4113
 -0.4070  -0.3997  -0.3912  -0.3886  -0.3830  -0.3747  -0.3699  -0.3632
 -0.3592  -0.3525  -0.3489  -0.3457  -0.3427  -0.3378  -0.3288  -0.3259
 -0.3210  -0.3149  -0.3076  -0.3066  -0.3034  -0.3009  -0.2993  -0.2789
 -0.2631  -0.2322  -0.2151

          Ground-State Mulliken Net Atomic Charges

     Atom                 Charge (a.u.)
  ----------------------------------------
      1 C                    -0.322937
      2 C                    -0.154533
      3 C                     0.091242
      4 C                    -0.250779
      5 C                     0.137760
      6 C                    -0.349661
      7 C                    -0.261180
      8 C                    -0.254960
      9 C                    -0.254627
     10 C                    -0.250602
     11 C                    -0.448905
     12 C                     0.084257
     13 C                    -0.141970
     14 C                    -0.328637
     15 C                    -0.252820
     16 C                     0.135560
     17 C                    -0.350072
     18 C                    -0.258985
     19 C                    -0.258703
     20 C                    -0.255236
     21 C                    -0.253785
     22 C                    -0.444739
     23 H                     0.141862
     24 H                     0.153065
     25 H                     0.141423
     26 H                     0.124176
     27 H                     0.151182
     28 H                     0.140088
     29 H                     0.126800
     30 H                     0.138271
     31 H                     0.125228
     32 H                     0.123798
     33 H                     0.145903
     34 H                     0.119448
     35 H                     0.122098
     36 H                     0.144177
     37 H                     0.135941
     38 H                     0.135216
     39 H                     0.149986
     40 H                     0.138217
     41 H                     0.149513
     42 H                     0.141592
     43 H                     0.118651
     44 H                     0.141815
     45 H                     0.145358
     46 H                     0.136524
     47 H                     0.139405
     48 H                     0.128575
     49 H                     0.131706
     50 H                     0.132014
     51 H                     0.126192
     52 H                     0.134245
     53 H                     0.129789
     54 H                     0.148432
     55 H                     0.142060
     56 H                     0.141561
  ----------------------------------------
  Sum of atomic charges =     0.000000

                    Cartesian Multipole Moments
 -----------------------------------------------------------------
    Charge (ESU x 10^10)
                 0.0000
    Dipole Moment (Debye)
         X      -0.2923      Y      -0.1276      Z       0.3152
       Tot       0.4484
    Quadrupole Moments (Debye-Ang)
        XX    -138.8052     XY      -2.6420     YY    -134.6666
        XZ       2.2820     YZ       2.5468     ZZ    -135.9639

 Total job time:  144.33s(wall), 143.95s(cpu)
        *  Thank you very much for using Q-Chem.  Have a nice day.  *
