 Q-Chem 5.4, Q-Chem, Inc., Pleasanton, CA (2021)
 Q-Chem 5.4.2 for Intel X86 EM64T Linux

User input:
--------------------------------------------------------------
$molecule
0 1
C           -4.18154479430000        0.70543157390000       -0.35628807750000
C           -2.90589200200000        0.70677573640000       -0.71509254150000
C           -1.87791270670000       -0.15382549740000       -0.12252929000000
C           -2.19559671900000       -1.46318698880000        0.22514267690000
C           -1.24260927790000       -2.30045087730000        0.77388124720000
C            0.04565927540000       -1.84063768710000        0.95367832670000
C            0.39475289480000       -0.54138821340000        0.58445519850000
C            1.79915477650000       -0.15999874580000        0.77501575330000
C            2.57119595740000        0.43184054330000       -0.11816634990000
F            2.23174132110000        0.81086980860000       -1.34482679720000
F            3.85614125210000        0.72365371130000        0.08672687420000
C           -0.57403749450000        0.32597058720000        0.07250308860000
C           -0.26878258710000        1.76767671440000       -0.20401022920000
H           -4.90495666850000        1.34447126160000       -0.83335378740000
H           -4.54984663900000        0.08054722690000        0.44049361450000
H           -2.57095191190000        1.37109239520000       -1.50074385700000
H           -3.19750665510000       -1.82558831450000        0.05164856970000
H           -1.50142633760000       -3.31099289710000        1.05215704940000
H            0.80256229120000       -2.49183527370000        1.36556590880000
H            2.27262569450000       -0.45250255550000        1.70085153420000
H            0.60095282230000        2.09789590960000        0.35873577040000
H           -1.11478358890000        2.39192998590000        0.07510998910000
H           -0.06415626740000        1.92184240440000       -1.26364124780000
$end

$rem
BASIS = 6-31G*
GUI = 2
METHOD = B3LYP
PRINT_ORBITALS false
MOLDEN_FORMAT false
$end
--------------------------------------------------------------

             Standard Nuclear Orientation (Angstroms)
    I     Atom           X                Y                Z
 ----------------------------------------------------------------
    1      C       3.9697176089     1.2051129196    -0.1715774515
    2      C       2.7033239556     1.2301053428     0.2178516052
    3      C       1.7772527142     0.1003456774     0.0972602437
    4      C       2.2397867058    -1.1931610698     0.3189109713
    5      C       1.3857357189    -2.2757303466     0.2243035035
    6      C       0.0531281878    -2.0685770266    -0.0666186428
    7      C      -0.4393968891    -0.7781746515    -0.2628889340
    8      C      -1.8785599544    -0.6578598805    -0.5245182972
    9      C      -2.7095355041     0.1762749657     0.0736407891
   10      F      -2.4109514575     1.0729256162     1.0066218528
   11      F      -4.0199277841     0.2219789381    -0.1692661644
   12      C       0.4268270945     0.3174220278    -0.2150872940
   13      C      -0.0385661566     1.7009778821    -0.5576351745
   14      H       4.6178399611     2.0557411748    -0.0464489503
   15      H       4.4036110280     0.3414866538    -0.6478903051
   16      H       2.2980809235     2.1278365442     0.6657424979
   17      H       3.2768367680    -1.3442721979     0.5776599648
   18      H       1.7562240462    -3.2768891449     0.3856674595
   19      H      -0.6266736605    -2.9058141676    -0.1259083485
   20      H      -2.3190614952    -1.3623255565    -1.2148744270
   21      H      -0.9419749830     1.6710096467    -1.1618883140
   22      H       0.7304582324     2.2292230700    -1.1169887736
   23      H      -0.2557085348     2.2694479464     0.3468800879
 ----------------------------------------------------------------

    9    -624.8241078548      5.22e-06  Convergence criterion met
 Total energy in the final basis set =     -624.8241078548

                    Orbital Energies (a.u.)
 --------------------------------------------------------------

 Alpha MOs
 -- Occupied --
-24.7394 -24.7324 -10.3542 -10.2001 -10.1995 -10.1955 -10.1911 -10.1893
-10.1862 -10.1845 -10.1837 -10.1808 -10.1761  -1.2817  -1.2214  -0.8717
 -0.8129  -0.7876  -0.7621  -0.7248  -0.6864  -0.6409  -0.6212  -0.5890
 -0.5739  -0.5538  -0.5207  -0.5152  -0.4994  -0.4744  -0.4529  -0.4455
 -0.4396  -0.4322  -0.4209  -0.4199  -0.4112  -0.4046  -0.3888  -0.3742
 -0.3582  -0.3421  -0.3334  -0.2943  -0.2738  -0.2323  -0.2235

          Ground-State Mulliken Net Atomic Charges

     Atom                 Charge (a.u.)
  ----------------------------------------
      1 C                    -0.336697
      2 C                    -0.132250
      3 C                     0.094895
      4 C                    -0.176809
      5 C                    -0.133249
      6 C                    -0.170506
      7 C                     0.110303
      8 C                    -0.348438
      9 C                     0.570247
     10 F                    -0.235608
     11 F                    -0.248981
     12 C                     0.080693
     13 C                    -0.540290
     14 H                     0.142967
     15 H                     0.145165
     16 H                     0.138785
     17 H                     0.129020
     18 H                     0.128108
     19 H                     0.126352
     20 H                     0.168047
     21 H                     0.156908
     22 H                     0.163462
     23 H                     0.167877
  ----------------------------------------
  Sum of atomic charges =     0.000000

                    Cartesian Multipole Moments
 -----------------------------------------------------------------
    Charge (ESU x 10^10)
                 0.0000
    Dipole Moment (Debye)
         X       0.7511      Y      -0.4339      Z      -0.4045
       Tot       0.9571
    Quadrupole Moments (Debye-Ang)
        XX     -73.1063     XY       1.9178     YY     -68.3911
        XZ       1.4750     YZ       0.5113     ZZ     -76.0208

 Total job time:  60.13s(wall), 51.32s(cpu)
        *  Thank you very much for using Q-Chem.  Have a nice day.  *
