 Q-Chem 5.2, Q-Chem, Inc., Pleasanton, CA (2019)
 Q-Chem 5.2.1 for Intel X86 EM64T Linux

User input:
--------------------------------------------------------------
$molecule
0 1
C        -4.33549855890000   -0.75671367430000    0.35855418370000
C        -3.52735846060000    0.14605471170000   -0.18264937800000
C        -2.07138398440000    0.10586426590000   -0.11986592330000
C        -1.37621565270000   -1.08943750680000   -0.07152879400000
C         0.02247707860000   -1.13529494950000   -0.05252328080000
C         0.73775468870000   -2.40277062460000    0.02595655910000
C         0.23851150270000   -3.52219708130000    0.53690118650000
C         0.68031668420000    0.10292443680000   -0.11904981920000
C         2.16485906500000    0.24320348900000   -0.15889953060000
O         2.94511174480000   -0.56466368560000   -0.60470467460000
O         2.54791497910000    1.41263205020000    0.35891265880000
C         3.94182658260000    1.67188647550000    0.33642685250000
N         0.03153285570000    1.26152823850000   -0.15265203840000
C        -1.29185936740000    1.29197712840000   -0.13571381420000
N        -1.84557640010000    2.53355085120000   -0.07052078560000
H        -5.40549848020000   -0.68235991980000    0.26902305560000
H        -3.96114722210000   -1.59207201060000    0.92515010750000
H        -3.95939024390000    0.98415629350000   -0.71725252170000
H        -1.92998020370000   -2.01549371170000   -0.09601128180000
H         1.75147197490000   -2.38756689240000   -0.34396496880000
H        -0.75346021740000   -3.58320739500000    0.95385236810000
H         0.82019401360000   -4.42713526850000    0.57096953450000
H         4.07575891530000    2.65553617080000    0.77899470570000
H         4.31574109880000    1.65752512620000   -0.68982905150000
H         4.47964599060000    0.91536091800000    0.91290854670000
H        -1.21071850380000    3.29833982220000   -0.22454595710000
H        -2.81091031470000    2.66606276560000   -0.31275720050000
$end

$rem
BASIS = 6-31G*
GUI = 2
METHOD = B3LYP
PRINT_ORBITALS false
MOLDEN_FORMAT false
--------------------------------------------------------------

             Standard Nuclear Orientation (Angstroms)
    I     Atom           X                Y                Z
 ----------------------------------------------------------------
    1      C       4.3728525069    -0.2531859605    -0.3294853671
    2      C       3.4639819264     0.5738549478     0.1714538271
    3      C       2.0227370808     0.3613613158     0.1159699476
    4      C       1.4717279251    -0.9077393363     0.1266592095
    5      C       0.0879530534    -1.1171092223     0.1149619219
    6      C      -0.4745591091    -2.4615800291     0.0990230240
    7      C       0.1527187540    -3.5381203207    -0.3603322263
    8      C      -0.7098567914     0.0377747930     0.1253704867
    9      C      -2.2007026296     0.0058448509     0.1639898862
   10      O      -2.8822996699    -0.8654325266     0.6502892267
   11      O      -2.7164925851     1.0968561854    -0.4070437785
   12      C      -4.1311614038     1.1926959212    -0.3917171573
   13      N      -0.2006106920     1.2643669182     0.1018650999
   14      C       1.1102403184     1.4479759166     0.0786621093
   15      N       1.5155810626     2.7411277599    -0.0470963241
   16      H       5.4267224251    -0.0505089844    -0.2474830859
   17      H       4.0994843771    -1.1523386708    -0.8546402809
   18      H       3.7943771923     1.4809364814     0.6643111128
   19      H       2.1296154749    -1.7607596777     0.1928024922
   20      H      -1.4838273847    -2.5471148826     0.4715242500
   21      H       1.1458169560    -3.5027872535    -0.7775683409
   22      H      -0.3194509077    -4.5052640907    -0.3495129271
   23      H      -4.3780118814     2.1319914680    -0.8797331560
   24      H      -4.5027689805     1.1834336636     0.6354349804
   25      H      -4.5760535726     0.3522349044    -0.9298695668
   26      H       0.7956176416     3.4331576482     0.0729777288
   27      H       2.4584343194     2.9965301180     0.1850778058
 ----------------------------------------------------------------

    9    -686.3126317027      6.12e-06  Convergence criterion met
 Total energy in the final basis set =     -686.3126317027

                    Orbital Energies (a.u.)
 --------------------------------------------------------------

 Alpha MOs
 -- Occupied --
-19.1835 -19.1296 -14.3510 -14.3196 -10.3074 -10.2625 -10.2325 -10.2288
-10.2040 -10.2036 -10.2004 -10.1967 -10.1911 -10.1781 -10.1723  -1.1041
 -1.0113  -0.9745  -0.9013  -0.8326  -0.8025  -0.7582  -0.7414  -0.7149
 -0.6614  -0.6381  -0.5892  -0.5773  -0.5559  -0.5465  -0.5335  -0.4932
 -0.4846  -0.4790  -0.4753  -0.4601  -0.4467  -0.4325  -0.4214  -0.4150
 -0.4074  -0.3960  -0.3853  -0.3731  -0.3519  -0.3460  -0.3336  -0.3135
 -0.2957  -0.2829  -0.2745  -0.2505  -0.2459  -0.2016

          Ground-State Mulliken Net Atomic Charges

     Atom                 Charge (a.u.)
  ----------------------------------------
      1 C                    -0.334661
      2 C                    -0.136689
      3 C                     0.153742
      4 C                    -0.231443
      5 C                     0.127898
      6 C                    -0.136198
      7 C                    -0.349530
      8 C                     0.163083
      9 C                     0.591989
     10 O                    -0.491196
     11 O                    -0.422680
     12 C                    -0.216696
     13 N                    -0.557862
     14 C                     0.422599
     15 N                    -0.774481
     16 H                     0.147719
     17 H                     0.149593
     18 H                     0.122643
     19 H                     0.143963
     20 H                     0.182042
     21 H                     0.132519
     22 H                     0.143787
     23 H                     0.163723
     24 H                     0.166543
     25 H                     0.165521
     26 H                     0.343017
     27 H                     0.331055
  ----------------------------------------
  Sum of atomic charges =     0.000000

                    Cartesian Multipole Moments
 -----------------------------------------------------------------
    Charge (ESU x 10^10)
                 0.0000
    Dipole Moment (Debye)
         X       2.4070      Y       2.2722      Z      -0.1822
       Tot       3.3151
    Quadrupole Moments (Debye-Ang)
        XX     -73.0162     XY      -1.5144     YY     -77.0512
        XZ       3.8503     YZ       4.5991     ZZ     -89.8044

 Total job time:  43.95s(wall), 43.82s(cpu)
        *  Thank you very much for using Q-Chem.  Have a nice day.  *
