 Q-Chem 5.2, Q-Chem, Inc., Pleasanton, CA (2019)
 Q-Chem 5.2.1 for Intel X86 EM64T Linux

User input:
--------------------------------------------------------------
$molecule
0 1
C         3.87893904730000   -0.57794240070000    2.52960210610000
C         2.69084260320000   -0.00408811460000    2.35928454090000
C         1.73327725750000   -0.37908774150000    1.35429708810000
S         1.99634490040000   -1.78063552970000    0.36054630440000
C         0.50196361190000   -1.51385296780000   -0.49001336090000
C         0.19834334390000   -2.42317670270000   -1.57505280920000
C        -0.32460375720000   -2.08798981170000   -2.74933764500000
C        -0.17234114360000   -0.42337547900000    0.00432483150000
C        -1.57363030550000   -0.06206252320000   -0.38662416590000
C        -2.57837028270000   -0.47476056970000    0.70111892320000
C        -2.64040632100000   -1.98319762330000    0.94219808480000
C        -3.16603337430000   -2.81296089160000   -0.23106248890000
C        -4.58151903070000   -2.46262859680000   -0.69263817180000
C        -5.63714022400000   -2.67484175330000    0.38620249320000
C         0.54135722530000    0.23611876140000    1.04281588880000
C         0.11854335310000    1.52937696540000    1.67453227860000
C         0.96429273620000    2.70465290890000    1.16245213480000
C         0.77919383180000    2.94372926230000   -0.33346355060000
C         1.67346591680000    4.07051506330000   -0.84328929630000
C         1.49929545090000    4.31024647040000   -2.34091344230000
C         2.40263396220000    5.42897771560000   -2.84477597970000
H         4.55225402010000   -0.26384949130000    3.30740057040000
H         4.21305188220000   -1.37997691970000    1.89219411150000
H         2.38552481140000    0.80223479250000    3.01295384980000
H         0.49627558750000   -3.45015917040000   -1.39940699720000
H        -0.57551351620000   -1.07162753650000   -3.00122259810000
H        -0.50282286870000   -2.82714110560000   -3.51135552500000
H        -1.84195687720000   -0.55814954260000   -1.31571571570000
H        -1.64606173280000    1.01541722770000   -0.54923066160000
H        -3.56608678350000   -0.10490777180000    0.42062030640000
H        -2.30579091910000    0.00206269150000    1.64512515060000
H        -3.26855102500000   -2.16461296530000    1.81660314120000
H        -1.63677052060000   -2.33948327620000    1.18691163690000
H        -3.14965153050000   -3.86386582890000    0.06961639760000
H        -2.48540253070000   -2.71078355320000   -1.07832273750000
H        -4.82240935010000   -3.09535896520000   -1.55072228030000
H        -4.61527022310000   -1.42742205650000   -1.03677743700000
H        -5.58662692270000   -3.69088127070000    0.77210145000000
H        -6.63250353420000   -2.51268086430000   -0.02189149360000
H        -5.49521868280000   -1.98487931830000    1.21399854020000
H         0.22294484220000    1.46117665270000    2.76041429750000
H        -0.92850833630000    1.73186591170000    1.45373253880000
H         2.01942948990000    2.50659417360000    1.36132476200000
H         0.68333089450000    3.60741074510000    1.71059829710000
H        -0.26539373940000    3.19402034510000   -0.53648377870000
H         1.01343462400000    2.02520793800000   -0.87677633210000
H         2.71735812780000    3.82079742330000   -0.63856681340000
H         1.44190989900000    4.99091855730000   -0.30120223810000
H         0.45692961270000    4.56487445920000   -2.54714386060000
H         1.72732137730000    3.38833398390000   -2.88094104820000
H         2.17810788070000    6.36137428630000   -2.33101804340000
H         2.26382326470000    5.58326913820000   -3.91235177560000
H         3.44748166880000    5.18412075630000   -2.66633421860000
$end

$rem
BASIS = 6-31G*
GUI = 2
METHOD = B3LYP
PRINT_ORBITALS false
MOLDEN_FORMAT false
--------------------------------------------------------------

             Standard Nuclear Orientation (Angstroms)
    I     Atom           X                Y                Z
 ----------------------------------------------------------------
    1      C      -2.1000400178     4.2083787611     0.5326749116
    2      C      -1.7035260795     3.0422966618     1.0355856489
    3      C      -0.8381094245     2.1097224984     0.3655742050
    4      S      -0.0762449910     2.5328107661    -1.1383008929
    5      C       0.7081820488     0.9822550609    -1.2291377758
    6      C       1.5011950408     0.7213778975    -2.4121166540
    7      C       1.5438953031    -0.4234480561    -3.0846633227
    8      C       0.4215243315     0.2066131283    -0.1316837900
    9      C       1.1038294709    -1.0931332084     0.1718267419
   10      C       2.1667273752    -0.9203275099     1.2688196147
   11      C       3.3114411323     0.0137947562     0.8758870717
   12      C       4.1947547289    -0.4794988891    -0.2720457329
   13      C       4.8901249803    -1.8197036788    -0.0277184800
   14      C       5.8432540380    -1.7962494875     1.1615092561
   15      C      -0.4780165037     0.8428887037     0.7676166986
   16      C      -1.0753787490     0.1863562138     1.9769460118
   17      C      -2.5395480076    -0.2080955405     1.7332087928
   18      C      -2.6822462400    -1.2559366533     0.6328229234
   19      C      -4.1448818322    -1.5912311547     0.3543165209
   20      C      -4.2957146628    -2.6334143955    -0.7510287333
   21      C      -5.7584230140    -2.9552683182    -1.0309427439
   22      H      -2.7401706405     4.8737523274     1.0844798250
   23      H      -1.7954197754     4.5303787547    -0.4495176458
   24      H      -2.0300580788     2.7448231883     2.0232827360
   25      H       2.0462784616     1.5793304742    -2.7877621020
   26      H       0.9689513788    -1.2862035612    -2.7939978217
   27      H       2.1490155460    -0.5281161739    -3.9687741830
   28      H       1.5852168663    -1.4801113555    -0.7225035533
   29      H       0.3674490016    -1.8293473835     0.5010413992
   30      H       2.5644137540    -1.9036269402     1.5257675208
   31      H       1.6972521550    -0.5119171582     2.1663727839
   32      H       3.9335943909     0.1823991076     1.7571131457
   33      H       2.8906330138     0.9805419151     0.5887817478
   34      H       4.9598162013     0.2797719870    -0.4544354938
   35      H       3.5951717157    -0.5559519932    -1.1810031664
   36      H       5.4556053142    -2.0749101422    -0.9275995029
   37      H       4.1455053928    -2.6043394496     0.1175809868
   38      H       6.5652421421    -0.9894829712     1.0534959928
   39      H       6.3873508297    -2.7359705514     1.2283521962
   40      H       5.3029547436    -1.6520333763     2.0935578422
   41      H      -1.0269357031     0.8689487145     2.8292437660
   42      H      -0.5122757843    -0.7090400982     2.2362759837
   43      H      -3.1128697761     0.6782746810     1.4543878219
   44      H      -2.9592808217    -0.6003256408     2.6629159487
   45      H      -2.1540901486    -2.1670855283     0.9258841862
   46      H      -2.2185665736    -0.8819475527    -0.2830767818
   47      H      -4.6728582927    -0.6799384947     0.0631676108
   48      H      -4.6118521593    -1.9652237837     1.2690226961
   49      H      -3.7724271973    -3.5472924838    -0.4596698361
   50      H      -3.8250834266    -2.2597198157    -1.6633920773
   51      H      -6.2407493506    -3.3466023059    -0.1376669978
   52      H      -5.8438679572    -3.6981825828    -1.8206071600
   53      H      -6.2922888777    -2.0600848019    -1.3426105709
 ----------------------------------------------------------------

    9   -1179.5585323325      2.29e-06  Convergence criterion met
 Total energy in the final basis set =    -1179.5585323325

                    Orbital Energies (a.u.)
 --------------------------------------------------------------

 Alpha MOs
 -- Occupied --
-88.8944 -10.2110 -10.2087 -10.1983 -10.1942 -10.1888 -10.1882 -10.1854
-10.1833 -10.1808 -10.1783 -10.1775 -10.1748 -10.1725 -10.1713 -10.1709
-10.1700 -10.1661 -10.1657 -10.1643 -10.1639  -7.9564  -5.9205  -5.9168
 -5.9131  -0.8886  -0.8153  -0.8116  -0.7991  -0.7850  -0.7694  -0.7643
 -0.7347  -0.7193  -0.6903  -0.6847  -0.6480  -0.6378  -0.6208  -0.6004
 -0.5884  -0.5744  -0.5634  -0.5391  -0.5259  -0.5181  -0.4854  -0.4755
 -0.4704  -0.4626  -0.4574  -0.4503  -0.4424  -0.4326  -0.4255  -0.4179
 -0.4174  -0.4067  -0.4033  -0.3952  -0.3915  -0.3832  -0.3790  -0.3788
 -0.3685  -0.3624  -0.3603  -0.3556  -0.3477  -0.3433  -0.3393  -0.3328
 -0.3292  -0.3238  -0.3229  -0.3187  -0.3153  -0.3075  -0.3030  -0.3019
 -0.2968  -0.2641  -0.2341  -0.1961

          Ground-State Mulliken Net Atomic Charges

     Atom                 Charge (a.u.)
  ----------------------------------------
      1 C                    -0.378586
      2 C                    -0.054477
      3 C                    -0.200065
      4 S                     0.222150
      5 C                    -0.206498
      6 C                    -0.106456
      7 C                    -0.330076
      8 C                     0.142710
      9 C                    -0.357447
     10 C                    -0.265466
     11 C                    -0.264319
     12 C                    -0.264996
     13 C                    -0.252559
     14 C                    -0.443475
     15 C                     0.111183
     16 C                    -0.350628
     17 C                    -0.257118
     18 C                    -0.259432
     19 C                    -0.246912
     20 C                    -0.249367
     21 C                    -0.440818
     22 H                     0.143937
     23 H                     0.156806
     24 H                     0.138511
     25 H                     0.144460
     26 H                     0.152790
     27 H                     0.145953
     28 H                     0.151336
     29 H                     0.143814
     30 H                     0.134271
     31 H                     0.137972
     32 H                     0.130103
     33 H                     0.144036
     34 H                     0.122857
     35 H                     0.143998
     36 H                     0.128349
     37 H                     0.130767
     38 H                     0.141353
     39 H                     0.139974
     40 H                     0.146162
     41 H                     0.145202
     42 H                     0.146415
     43 H                     0.142694
     44 H                     0.128379
     45 H                     0.124900
     46 H                     0.146839
     47 H                     0.130763
     48 H                     0.125415
     49 H                     0.128253
     50 H                     0.132443
     51 H                     0.140744
     52 H                     0.140672
     53 H                     0.142487
  ----------------------------------------
  Sum of atomic charges =     0.000000

                    Cartesian Multipole Moments
 -----------------------------------------------------------------
    Charge (ESU x 10^10)
                -0.0000
    Dipole Moment (Debye)
         X      -0.1290      Y      -0.9090      Z       0.4943
       Tot       1.0428
    Quadrupole Moments (Debye-Ang)
        XX    -140.9948     XY      -1.6018     YY    -138.8065
        XZ      -5.2002     YZ       0.7078     ZZ    -135.7883

 Total job time:  144.24s(wall), 143.85s(cpu)
        *  Thank you very much for using Q-Chem.  Have a nice day.  *
