 Q-Chem 5.4, Q-Chem, Inc., Pleasanton, CA (2021)
 Q-Chem 5.4.2 for Intel X86 EM64T Linux

User input:
--------------------------------------------------------------
$molecule
0 1
C           -4.58166234260000       -0.48079963620000        0.20179084810000
C           -3.63575918150000        0.34708038850000       -0.22214488020000
C           -2.19934025880000        0.10949693050000       -0.10106456340000
C           -1.69293348590000       -1.18778609580000       -0.14221619230000
C           -0.34215523650000       -1.46675172740000       -0.03982585390000
C            0.12953917420000       -2.88889338180000       -0.11011490050000
C            0.55483087240000       -0.39675714840000        0.10788738760000
C            1.98152341300000       -0.66085606810000        0.23071555300000
C            2.98209700110000        0.18097714960000        0.02258911820000
F            2.92360332000000        1.44994750960000       -0.36797966830000
F            4.26365137840000       -0.16175649180000        0.17141189680000
C            0.04989897660000        0.90294824700000        0.15021497510000
C           -1.30172222190000        1.17691524720000        0.04554886820000
C           -1.78177304210000        2.59548197180000        0.11515064200000
H           -5.62686502310000       -0.25338500650000        0.07912513470000
H           -4.35333199530000       -1.40601976830000        0.70396877510000
H           -3.92141365090000        1.28133126740000       -0.68667588730000
H           -2.38394266430000       -2.00636377600000       -0.28095074640000
H           -0.70832217550000       -3.55474448120000       -0.30080891880000
H            0.59397178460000       -3.18991762650000        0.82906655110000
H            0.85896431340000       -3.01795483450000       -0.90837666760000
H            2.28201566980000       -1.65708312860000        0.51707141090000
H            0.73110773140000        1.72864039420000        0.28246300740000
H           -0.95416599080000        3.26725937920000        0.32764717050000
H           -2.53363894670000        2.71080749800000        0.89432217750000
H           -2.22889900370000        2.89594147150000       -0.83252688810000
$end

$rem
BASIS = 6-31G*
GUI = 2
METHOD = B3LYP
PRINT_ORBITALS false
MOLDEN_FORMAT false
$end
--------------------------------------------------------------

             Standard Nuclear Orientation (Angstroms)
    I     Atom           X                Y                Z
 ----------------------------------------------------------------
    1      C       4.4499184813    -0.5310648054    -0.2058498163
    2      C       3.5183244858     0.3129332324     0.2179892651
    3      C       2.0780243877     0.0981630081     0.1004518573
    4      C       1.5509358291    -1.1907131307     0.1458443323
    5      C       0.1956397710    -1.4481904408     0.0469225768
    6      C      -0.2986851067    -2.8623955137     0.1216887425
    7      C      -0.6843542667    -0.3642861305    -0.1015820364
    8      C      -2.1153587664    -0.6057288240    -0.2208219227
    9      C      -3.1018446007     0.2525739310    -0.0127129028
   10      F      -3.0221595254     1.5213870616     0.3746045258
   11      F      -4.3890473842    -0.0698880077    -0.1580521016
   12      C      -0.1587039548     0.9270328915    -0.1481534013
   13      C       1.1973594368     1.1795042234    -0.0469452987
   14      C       1.6999836556     2.5900022626    -0.1210325796
   15      H       5.4988936668    -0.3201732371    -0.0858967374
   16      H       4.2057055832    -1.4537160984    -0.7052738471
   17      H       3.8199200550     1.2436015847     0.6796263171
   18      H       2.2289989087    -2.0199465078     0.2851743216
   19      H       0.5287726777    -3.5411552996     0.3122990900
   20      H      -0.7698612739    -3.1582032373    -0.8157897130
   21      H      -1.0284129066    -2.9777798953     0.9217659411
   22      H      -2.4324117889    -1.5976934177    -0.5041013880
   23      H      -0.8268400312     1.7632381281    -0.2810346162
   24      H       0.8828282697     3.2744698050    -0.3334810432
   25      H       2.4519687194     2.6913384496    -0.9020319639
   26      H       2.1538641953     2.8855440163     0.8249789240
 ----------------------------------------------------------------

    9    -664.1468738578      7.53e-06  Convergence criterion met
 Total energy in the final basis set =     -664.1468738578

                    Orbital Energies (a.u.)
 --------------------------------------------------------------

 Alpha MOs
 -- Occupied --
-24.7411 -24.7312 -10.3540 -10.1993 -10.1980 -10.1918 -10.1898 -10.1879
-10.1875 -10.1827 -10.1798 -10.1794 -10.1791 -10.1788  -1.2817  -1.2208
 -0.8711  -0.8184  -0.7851  -0.7756  -0.7230  -0.7183  -0.6588  -0.6464
 -0.6161  -0.5861  -0.5664  -0.5521  -0.5174  -0.5158  -0.4864  -0.4808
 -0.4485  -0.4397  -0.4359  -0.4336  -0.4307  -0.4201  -0.4147  -0.4095
 -0.4005  -0.3943  -0.3749  -0.3715  -0.3534  -0.3361  -0.3308  -0.3059
 -0.2642  -0.2380  -0.2070

          Ground-State Mulliken Net Atomic Charges

     Atom                 Charge (a.u.)
  ----------------------------------------
      1 C                    -0.338970
      2 C                    -0.130876
      3 C                     0.123687
      4 C                    -0.266134
      5 C                     0.130417
      6 C                    -0.539223
      7 C                     0.152362
      8 C                    -0.313889
      9 C                     0.550374
     10 F                    -0.235453
     11 F                    -0.251363
     12 C                    -0.272736
     13 C                     0.128280
     14 C                    -0.537051
     15 H                     0.141560
     16 H                     0.143240
     17 H                     0.131367
     18 H                     0.121316
     19 H                     0.159728
     20 H                     0.162110
     21 H                     0.165540
     22 H                     0.160416
     23 H                     0.128259
     24 H                     0.158035
     25 H                     0.166513
     26 H                     0.162490
  ----------------------------------------
  Sum of atomic charges =     0.000000

                    Cartesian Multipole Moments
 -----------------------------------------------------------------
    Charge (ESU x 10^10)
                 0.0000
    Dipole Moment (Debye)
         X       0.9154      Y      -0.5625      Z      -0.1231
       Tot       1.0815
    Quadrupole Moments (Debye-Ang)
        XX     -80.9985     XY       2.3126     YY     -74.3804
        XZ       0.7861     YZ       0.6433     ZZ     -82.5583

 Total job time:  66.82s(wall), 62.44s(cpu)
        *  Thank you very much for using Q-Chem.  Have a nice day.  *
