 Q-Chem 5.2, Q-Chem, Inc., Pleasanton, CA (2019)
 Q-Chem 5.2.1 for Intel X86 EM64T Linux

User input:
--------------------------------------------------------------
$molecule
0 1
C         4.52640450560000   -0.71404491650000   -0.00055240550000
C         3.56735269020000    0.20874660110000   -0.00094239630000
C         2.15462530750000   -0.06361261570000   -0.00020515200000
C         1.48473865320000   -1.26410196470000    0.00021729560000
C         0.09209252500000   -1.13126328750000    0.00068856850000
C        -0.32735752670000    0.17805387730000    0.00073098740000
C        -1.65189339840000    0.72942461760000    0.00106159200000
C        -2.78821537420000    0.04102311400000    0.00007496990000
F        -2.91859982100000   -1.28115306700000   -0.00141484820000
F        -3.99240782960000    0.60546302470000    0.00038572160000
S         1.03111603180000    1.26010494070000    0.00018509650000
H         5.56581002300000   -0.43798525960000   -0.00128170520000
H         4.30916511820000   -1.76789998360000    0.00053228650000
H         3.83041082370000    1.25855788790000   -0.00189154440000
H         1.98439778200000   -2.21547175100000    0.00017574740000
H        -0.58392296010000   -1.96647647150000    0.00112483550000
H        -1.74153500130000    1.80507051030000    0.00205894460000
$end

$rem
BASIS = 6-31G*
GUI = 2
METHOD = B3LYP
PRINT_ORBITALS false
MOLDEN_FORMAT false
--------------------------------------------------------------

             Standard Nuclear Orientation (Angstroms)
    I     Atom           X                Y                Z
 ----------------------------------------------------------------
    1      C       4.4303960009    -0.5757807453    -0.0001438718
    2      C       3.4460383699     0.3199671740    -0.0008080525
    3      C       2.0414365079     0.0084036440    -0.0000867826
    4      C       1.4052135033    -1.2102607172     0.0005827949
    5      C       0.0094102779    -1.1162245501     0.0009429077
    6      C      -0.4463098485     0.1809141728     0.0006500766
    7      C      -1.7856750714     0.6952155071     0.0007739098
    8      C      -2.9024018324    -0.0245384710    -0.0001139810
    9      F      -2.9959454026    -1.3498310343    -0.0012969106
   10      F      -4.1218338927     0.5061755931    -0.0000062312
   11      S       0.8815290537     1.3003464103    -0.0000754390
   12      H       5.4617175835    -0.2709061024    -0.0008794092
   13      H       4.2425647710    -1.6352722788     0.0011789539
   14      H       3.6797831163     1.3766914582    -0.0019917547
   15      H       1.9311515621    -2.1473588070     0.0007959803
   16      H      -0.6431031999    -1.9699247287     0.0015391123
   17      H      -1.9052124797     1.7679507791     0.0015104121
 ----------------------------------------------------------------

    9    -906.2713582895      7.85e-06  Convergence criterion met
 Total energy in the final basis set =     -906.2713582895

                    Orbital Energies (a.u.)
 --------------------------------------------------------------

 Alpha MOs
 -- Occupied --
-88.9105 -24.7469 -24.7392 -10.3603 -10.2295 -10.2204 -10.2133 -10.2006
-10.1920 -10.1914 -10.1837  -7.9724  -5.9362  -5.9328  -5.9294  -1.2882
 -1.2287  -0.8950  -0.8191  -0.7829  -0.7439  -0.7099  -0.6444  -0.6139
 -0.5854  -0.5722  -0.5424  -0.5222  -0.5067  -0.4902  -0.4628  -0.4445
 -0.4430  -0.4335  -0.4170  -0.3982  -0.3979  -0.3769  -0.3632  -0.3486
 -0.3246  -0.2718  -0.2584  -0.1982

          Ground-State Mulliken Net Atomic Charges

     Atom                 Charge (a.u.)
  ----------------------------------------
      1 C                    -0.342115
      2 C                    -0.089527
      3 C                    -0.128144
      4 C                    -0.123317
      5 C                    -0.133109
      6 C                    -0.118604
      7 C                    -0.264595
      8 C                     0.554605
      9 F                    -0.236449
     10 F                    -0.244337
     11 S                     0.239858
     12 H                     0.147341
     13 H                     0.142661
     14 H                     0.136964
     15 H                     0.140660
     16 H                     0.147763
     17 H                     0.170347
  ----------------------------------------
  Sum of atomic charges =     0.000000

                    Cartesian Multipole Moments
 -----------------------------------------------------------------
    Charge (ESU x 10^10)
                 0.0000
    Dipole Moment (Debye)
         X       0.7457      Y      -0.0648      Z       0.0008
       Tot       0.7486
    Quadrupole Moments (Debye-Ang)
        XX     -66.5751     XY      -1.6140     YY     -63.8281
        XZ      -0.0044     YZ      -0.0046     ZZ     -71.6790

 Total job time:  18.79s(wall), 18.72s(cpu)
        *  Thank you very much for using Q-Chem.  Have a nice day.  *
