 Q-Chem 5.4, Q-Chem, Inc., Pleasanton, CA (2021)
 Q-Chem 5.4.2 for Intel X86 EM64T Linux

User input:
--------------------------------------------------------------
$molecule
0 1
C            1.26030704770000       -2.83137716370000       -0.43601295860000
C            1.90809324920000       -1.84385232380000        0.16788005700000
C            1.52004456010000       -0.44063452000000        0.13870133360000
C            2.44003355540000        0.56494960950000        0.07815179490000
S            1.72595710140000        2.12143131620000       -0.02150505790000
C            0.15836270670000        1.43865791510000        0.04605556420000
C            0.17815420720000        0.07369391870000        0.13419047730000
C           -0.99117180340000       -0.76444419600000        0.30172591510000
C           -2.24104167930000       -0.42365376650000        0.02866680270000
F           -2.66300158730000        0.72901179010000       -0.48296697300000
F           -3.28634965640000       -1.22518836350000        0.22448240540000
H            1.61646510100000       -3.84606761140000       -0.38626658150000
H            0.37328045830000       -2.66511725550000       -1.02353555940000
H            2.83132753880000       -2.04880215530000        0.69532848790000
H            3.50774977260000        0.47099083210000        0.05730199670000
H           -0.69534730470000        2.08559330480000        0.04072963340000
H           -0.83317069960000       -1.75540989410000        0.69867694960000
$end

$rem
BASIS = 6-31G*
GUI = 2
METHOD = B3LYP
PRINT_ORBITALS false
MOLDEN_FORMAT false
$end
--------------------------------------------------------------

             Standard Nuclear Orientation (Angstroms)
    I     Atom           X                Y                Z
 ----------------------------------------------------------------
    1      C      -0.4213745981    -2.9998463014     0.4616602207
    2      C      -1.3091094871    -2.2175945607    -0.1379463399
    3      C      -1.2973709929    -0.7615975732    -0.1182392782
    4      C      -2.4456828848    -0.0281068899    -0.0502933003
    5      S      -2.1580002794     1.6607836708     0.0354934494
    6      C      -0.4678739974     1.4067053192    -0.0482530926
    7      C      -0.1344642238     0.0826170364    -0.1314054844
    8      C       1.2101786598    -0.4252758898    -0.3098634136
    9      C       2.3319761882     0.2292220899    -0.0528093295
   10      F       2.4464313986     1.4550916968     0.4497848224
   11      F       3.5470618358    -0.2756047989    -0.2582038490
   12      H      -0.5031369284    -4.0724463447     0.4196598164
   13      H       0.3984847068    -2.6058423733     1.0380567498
   14      H      -2.1532876829    -2.6579566055    -0.6537101207
   15      H      -3.4523693392    -0.3951485891    -0.0164752561
   16      H       0.1892019964     2.2526227212    -0.0552840920
   17      H       1.3100006250    -1.4258890055    -0.7014709408
 ----------------------------------------------------------------

    9    -906.2669640126      4.60e-06  Convergence criterion met
 Total energy in the final basis set =     -906.2669640126

                    Orbital Energies (a.u.)
 --------------------------------------------------------------

 Alpha MOs
 -- Occupied --
-88.9122 -24.7413 -24.7332 -10.3539 -10.2129 -10.2109 -10.2074 -10.2014
-10.2014 -10.1991 -10.1853  -7.9740  -5.9379  -5.9341  -5.9315  -1.2824
 -1.2227  -0.8954  -0.8097  -0.7958  -0.7237  -0.7211  -0.6382  -0.6031
 -0.5852  -0.5752  -0.5431  -0.5174  -0.5166  -0.4819  -0.4519  -0.4423
 -0.4393  -0.4282  -0.4132  -0.4034  -0.3962  -0.3857  -0.3632  -0.3475
 -0.3000  -0.2967  -0.2277  -0.2177

          Ground-State Mulliken Net Atomic Charges

     Atom                 Charge (a.u.)
  ----------------------------------------
      1 C                    -0.347786
      2 C                    -0.119730
      3 C                     0.128237
      4 C                    -0.407817
      5 S                     0.275347
      6 C                    -0.418695
      7 C                     0.164015
      8 C                    -0.298214
      9 C                     0.545097
     10 F                    -0.240246
     11 F                    -0.248431
     12 H                     0.146122
     13 H                     0.157122
     14 H                     0.138237
     15 H                     0.173385
     16 H                     0.179488
     17 H                     0.173869
  ----------------------------------------
  Sum of atomic charges =     0.000000

                    Cartesian Multipole Moments
 -----------------------------------------------------------------
    Charge (ESU x 10^10)
                 0.0000
    Dipole Moment (Debye)
         X      -0.9553      Y      -0.8817      Z      -0.2359
       Tot       1.3212
    Quadrupole Moments (Debye-Ang)
        XX     -67.6457     XY       1.5739     YY     -63.9210
        XZ       0.7639     YZ       0.1416     ZZ     -70.6189

 Total job time:  34.61s(wall), 32.70s(cpu)
        *  Thank you very much for using Q-Chem.  Have a nice day.  *
