 Q-Chem 5.2, Q-Chem, Inc., Pleasanton, CA (2019)
 Q-Chem 5.2.1 for Intel X86 EM64T Linux

User input:
--------------------------------------------------------------
$molecule
0 1
C        -3.63212050800000    0.91178403730000    0.00381372920000
C        -2.82076979700000   -0.14417900920000   -0.00134551320000
C        -1.38578514460000   -0.03992535730000    0.00025500710000
C        -0.57683686610000   -1.11358031410000   -0.00577296530000
C         0.86447668730000   -1.11032277870000   -0.00561308180000
C         1.67574589150000   -0.05793731110000   -0.00003665280000
F         1.33760189590000    1.22618336090000    0.00687336650000
F         3.00397917000000   -0.15724188150000   -0.00076512240000
H        -4.70323568620000    0.80838517720000    0.00220302140000
H        -3.24532561270000    1.91749089350000    0.00953993290000
H        -3.23196704310000   -1.14568405840000   -0.00713103440000
H        -0.97999203580000    0.96084625350000    0.00634735050000
H        -1.02178656120000   -2.09983711970000   -0.01160262560000
H         1.36070887360000   -2.06949089320000   -0.01082350520000
$end

$rem
BASIS = 6-31G*
GUI = 2
METHOD = B3LYP
PRINT_ORBITALS false
MOLDEN_FORMAT false
--------------------------------------------------------------

             Standard Nuclear Orientation (Angstroms)
    I     Atom           X                Y                Z
 ----------------------------------------------------------------
    1      C       3.5533032451    -0.6985827954    -0.0003760130
    2      C       2.6733335770     0.3009310132    -0.0000943780
    3      C       1.2484969841     0.1012002525     0.0007086302
    4      C       0.3697443312     1.1185311485     0.0002154525
    5      C      -1.0681429790     1.0191557579     0.0001104684
    6      C      -1.8074191216    -0.0850067122    -0.0000138837
    7      F      -1.3843859790    -1.3437354111     0.0001682318
    8      F      -3.1393181669    -0.0745035148    -0.0004457915
    9      H       4.6151374944    -0.5239720974    -0.0012562468
   10      H       3.2344432865    -1.7278629170    -0.0000309859
   11      H       3.0168217734     1.3276465003    -0.0005167332
   12      H       0.9103520341    -0.9244246472     0.0014426077
   13      H       0.7479267595     2.1322838109    -0.0003258207
   14      H      -1.6272402560     1.9431076974    -0.0001164430
 ----------------------------------------------------------------

    9    -431.8630321374      7.68e-06  Convergence criterion met
 Total energy in the final basis set =     -431.8630321374

                    Orbital Energies (a.u.)
 --------------------------------------------------------------

 Alpha MOs
 -- Occupied --
-24.7451 -24.7356 -10.3572 -10.2037 -10.1994 -10.1897 -10.1888 -10.1797
 -1.2859  -1.2254  -0.8305  -0.7898  -0.7263  -0.6493  -0.6045  -0.5772
 -0.5623  -0.5194  -0.5115  -0.4714  -0.4557  -0.4418  -0.4345  -0.4209
 -0.3938  -0.3801  -0.3510  -0.3419  -0.2870  -0.2075

          Ground-State Mulliken Net Atomic Charges

     Atom                 Charge (a.u.)
  ----------------------------------------
      1 C                    -0.362393
      2 C                    -0.050413
      3 C                    -0.115826
      4 C                    -0.136523
      5 C                    -0.243638
      6 C                     0.551584
      7 F                    -0.234037
      8 F                    -0.246712
      9 H                     0.143518
     10 H                     0.142029
     11 H                     0.124380
     12 H                     0.135778
     13 H                     0.132355
     14 H                     0.159898
  ----------------------------------------
  Sum of atomic charges =     0.000000

                    Cartesian Multipole Moments
 -----------------------------------------------------------------
    Charge (ESU x 10^10)
                 0.0000
    Dipole Moment (Debye)
         X       0.4564      Y       0.9006      Z      -0.0004
       Tot       1.0096
    Quadrupole Moments (Debye-Ang)
        XX     -45.0007     XY      -1.0888     YY     -41.3391
        XZ      -0.0031     YZ      -0.0021     ZZ     -47.4553

 Total job time:  8.98s(wall), 8.92s(cpu)
        *  Thank you very much for using Q-Chem.  Have a nice day.  *
