 Q-Chem 5.2, Q-Chem, Inc., Pleasanton, CA (2019)
 Q-Chem 5.2.1 for Intel X86 EM64T Linux

User input:
--------------------------------------------------------------
$molecule
0 1
C        -3.24146438620000    3.08722645440000    0.61235853790000
C        -3.19769125750000    1.85111191220000    0.12186468050000
C        -2.06444093260000    0.96707458220000    0.19165794330000
C        -0.82378430430000    1.16255944580000    0.73254086140000
C         0.06201711610000    0.06402980640000    0.62212373600000
C         1.46268095650000    0.24813464740000    1.16480420340000
C         2.44439427180000   -0.92161800400000    1.05196656930000
C         2.87632717630000   -1.19800092140000   -0.38670403600000
C         3.49198257990000    0.04805010430000   -1.01263573480000
C         2.50029096140000    1.20268261830000   -0.93600809180000
C         2.12872521530000    1.47711233020000    0.51667407150000
C        -0.54096495800000   -1.01338329530000    0.00683328800000
C        -0.10578118800000   -2.36835739780000   -0.24270468090000
C        -0.63901706340000   -3.16542426330000   -1.16433220640000
S        -2.17541078460000   -0.62603915870000   -0.47915717470000
H        -4.12696292910000    3.69164324910000    0.52605626620000
H        -2.40197645260000    3.53548275020000    1.11484083660000
H        -4.06632406340000    1.43908359750000   -0.37554757130000
H        -0.55415724720000    2.08001735280000    1.22417463170000
H         1.33625915470000    0.46712553320000    2.23530082690000
H         2.02717083630000   -1.81661058760000    1.51475705880000
H         3.33345853490000   -0.65469460680000    1.63120934360000
H         2.01767278000000   -1.50139444860000   -0.98644481160000
H         3.59841770680000   -2.01795977560000   -0.39586824290000
H         3.75924724840000   -0.15190749750000   -2.05224644630000
H         4.40589741260000    0.31838805010000   -0.47742869050000
H         1.59950629400000    0.94935639360000   -1.49987852260000
H         2.93419058000000    2.10110162730000   -1.38043138020000
H         1.47323351490000    2.34617565950000    0.56888855920000
H         3.03621016910000    1.71381136650000    1.07814575070000
H         0.67505233270000   -2.75248706540000    0.39498127910000
H        -1.42243845210000   -2.82814615080000   -1.82295019780000
H        -0.30478930870000   -4.18003712410000   -1.29116272260000
$end

$rem
BASIS = 6-31G*
GUI = 2
METHOD = B3LYP
PRINT_ORBITALS false
MOLDEN_FORMAT false
--------------------------------------------------------------

             Standard Nuclear Orientation (Angstroms)
    I     Atom           X                Y                Z
 ----------------------------------------------------------------
    1      C       4.1167887979    -1.9665797746    -0.0752057232
    2      C       3.6747414824    -0.7251940969    -0.2596921521
    3      C       2.3334524245    -0.2719282662    -0.0025090475
    4      C       1.2420039760    -0.9572520688     0.4547317011
    5      C       0.0614064235    -0.1885227520     0.5920201681
    6      C      -1.1856643719    -0.9127580369     1.0508813229
    7      C      -2.4791647184    -0.1070674740     1.2009952825
    8      C      -3.0545526034     0.3478331620    -0.1386766381
    9      C      -3.2999416625    -0.8471114940    -1.0526551416
   10      C      -2.0035411274    -1.6274270463    -1.2341863940
   11      C      -1.4854102608    -2.1022457923     0.1184945741
   12      C       0.2757684218     1.1331741768     0.2601242946
   13      C      -0.5611066490     2.3088581719     0.3309493576
   14      C      -0.3458121489     3.4209568799    -0.3661432652
   15      S       1.9208770152     1.3881659642    -0.2748825039
   16      H       5.1370151444    -2.2336719832    -0.2865712059
   17      H       3.4812358395    -2.7536231015     0.2919419263
   18      H       4.3492449075     0.0361472689    -0.6299808044
   19      H       1.2897259787    -2.0005907987     0.7102672764
   20      H      -0.9390751099    -1.3232785808     2.0411182237
   21      H      -2.3259425037     0.7405195529     1.8698609954
   22      H      -3.2122724699    -0.7595341028     1.6847781660
   23      H      -2.3625402222     1.0293975610    -0.6342700570
   24      H      -3.9896251848     0.8860658773     0.0338807473
   25      H      -3.6731045501    -0.5044326523    -2.0198803211
   26      H      -4.0581490538    -1.5001827293    -0.6128949568
   27      H      -1.2543126993    -0.9874752607    -1.7060502839
   28      H      -2.1705687942    -2.4875239094    -1.8863158279
   29      H      -0.5964941315    -2.7161599267    -0.0250475557
   30      H      -2.2461653170    -2.7283401122     0.5918480032
   31      H      -1.3842625027     2.2773412681     1.0275992679
   32      H       0.4644995781     3.5013660568    -1.0719849793
   33      H      -0.9770490546     4.2849066131    -0.2549485869
 ----------------------------------------------------------------

    9    -942.4695507031      3.41e-06  Convergence criterion met
 Total energy in the final basis set =     -942.4695507031

                    Orbital Energies (a.u.)
 --------------------------------------------------------------

 Alpha MOs
 -- Occupied --
-88.8969 -10.2142 -10.2139 -10.1973 -10.1949 -10.1946 -10.1928 -10.1818
-10.1815 -10.1792 -10.1781 -10.1761 -10.1709 -10.1704 -10.1701  -7.9589
 -5.9230  -5.9193  -5.9158  -0.8884  -0.8371  -0.8039  -0.7774  -0.7568
 -0.7393  -0.7140  -0.6975  -0.6219  -0.6175  -0.6042  -0.5818  -0.5546
 -0.5323  -0.5214  -0.4855  -0.4732  -0.4583  -0.4531  -0.4422  -0.4344
 -0.4262  -0.4089  -0.3939  -0.3893  -0.3775  -0.3747  -0.3730  -0.3620
 -0.3588  -0.3490  -0.3374  -0.3319  -0.3148  -0.3076  -0.2998  -0.2920
 -0.2658  -0.2397  -0.1977

          Ground-State Mulliken Net Atomic Charges

     Atom                 Charge (a.u.)
  ----------------------------------------
      1 C                    -0.341816
      2 C                    -0.088583
      3 C                    -0.121626
      4 C                    -0.173387
      5 C                     0.179707
      6 C                    -0.155161
      7 C                    -0.287493
      8 C                    -0.270698
      9 C                    -0.254307
     10 C                    -0.261044
     11 C                    -0.267173
     12 C                    -0.250647
     13 C                    -0.057600
     14 C                    -0.376977
     15 S                     0.228411
     16 H                     0.146624
     17 H                     0.142240
     18 H                     0.136879
     19 H                     0.136831
     20 H                     0.136160
     21 H                     0.137852
     22 H                     0.130974
     23 H                     0.157151
     24 H                     0.127179
     25 H                     0.130011
     26 H                     0.124157
     27 H                     0.145951
     28 H                     0.128972
     29 H                     0.134742
     30 H                     0.128302
     31 H                     0.149944
     32 H                     0.159535
     33 H                     0.144891
  ----------------------------------------
  Sum of atomic charges =     0.000000

                    Cartesian Multipole Moments
 -----------------------------------------------------------------
    Charge (ESU x 10^10)
                -0.0000
    Dipole Moment (Debye)
         X      -0.6526      Y      -0.7499      Z       0.3309
       Tot       1.0478
    Quadrupole Moments (Debye-Ang)
        XX     -94.2001     XY      -2.5175     YY     -94.1450
        XZ      -2.8914     YZ      -1.8410     ZZ    -100.1872

 Total job time:  64.51s(wall), 64.28s(cpu)
        *  Thank you very much for using Q-Chem.  Have a nice day.  *
