 Q-Chem 5.2, Q-Chem, Inc., Pleasanton, CA (2019)
 Q-Chem 5.2.1 for Intel X86 EM64T Linux

User input:
--------------------------------------------------------------
$molecule
0 1
C         5.46090610190000   -2.12270170580000    0.77177709390000
C         4.92936205370000   -0.93835452310000    0.49254626400000
C         3.52346978160000   -0.64568853450000    0.24739971210000
C         2.52916361110000   -1.62177203250000    0.24030065620000
C         1.20994286270000   -1.29378564870000   -0.00610686820000
C         0.83860695750000    0.02274359220000   -0.25140620560000
O        -0.43950080540000    0.42640643600000   -0.49499600320000
C        -1.47372607820000   -0.52971811210000   -0.49651973290000
C        -2.77658431210000    0.22630928460000   -0.82168205030000
C        -3.19531406710000    1.15666772870000    0.32372330840000
C        -3.80643013190000    0.37369767080000    1.48395222470000
C        -4.92845548940000   -0.51180717070000    0.94869963410000
C        -4.37754272510000   -1.40251148940000   -0.16306922080000
O        -3.81052045850000   -0.65014942790000   -1.21669093560000
C         1.82310122730000    1.03374215810000   -0.24326389270000
C         1.42534319300000    2.41188845310000   -0.50978549320000
C         2.12625250590000    3.49854685370000   -0.21148430920000
C         3.14016483480000    0.67163718250000   -0.00016755590000
H         6.51843250260000   -2.23568636890000    0.93821576320000
H         4.87528119440000   -3.02264997660000    0.84792477460000
H         5.58165620190000   -0.07502755900000    0.43521683570000
H         2.78090855180000   -2.65457174610000    0.42286490790000
H         0.47127492750000   -2.08034100810000   -0.00967444650000
H        -1.53413131100000   -1.02365046370000    0.48135379770000
H        -1.30769787570000   -1.29048775390000   -1.27159110290000
H        -2.57406636730000    0.82684262590000   -1.71660163640000
H        -3.93811652360000    1.85934607610000   -0.05886956280000
H        -2.32061497200000    1.72030592420000    0.64886771210000
H        -4.19243610320000    1.06600378200000    2.23418913290000
H        -3.04750081190000   -0.24678702910000    1.96562778690000
H        -5.72344222890000    0.11469094290000    0.53997158270000
H        -5.34788352140000   -1.13407241450000    1.74013319590000
H        -5.17622550700000   -1.98195936040000   -0.63191467360000
H        -3.63822441410000   -2.10295197290000    0.25209352980000
H         0.45453816250000    2.51366450120000   -0.97536159680000
H         3.08182422540000    3.45768694080000    0.28344679820000
H         1.75864801390000    4.48291967580000   -0.44555136650000
H         3.89959888960000    1.43904120070000   -0.01792731610000
$end

$rem
BASIS = 6-31G*
GUI = 2
METHOD = B3LYP
PRINT_ORBITALS false
MOLDEN_FORMAT false
--------------------------------------------------------------

             Standard Nuclear Orientation (Angstroms)
    I     Atom           X                Y                Z
 ----------------------------------------------------------------
    1      C       5.5424764800    -2.0945346675     0.4097499839
    2      C       4.9868846218    -0.8952813228     0.2820930879
    3      C       3.5724207441    -0.6012920207     0.0946216968
    4      C       2.5943136682    -1.5876274703    -0.0143878504
    5      C       1.2658952980    -1.2568359146    -0.2001745542
    6      C       0.8688693391     0.0725226957    -0.2807191674
    7      O      -0.4196435371     0.4788551516    -0.4552689813
    8      C      -1.4378921711    -0.4890647330    -0.5557637796
    9      C      -2.7583218639     0.2763343859    -0.7687829106
   10      C      -3.1728205906     1.0555419898     0.4857613069
   11      C      -3.7512416199     0.1286536917     1.5529741676
   12      C      -4.8674688525    -0.7070902850     0.9323907053
   13      C      -4.3209058145    -1.4485227090    -0.2859835599
   14      O      -3.7842571284    -0.5655474020    -1.2503716743
   15      C       1.8366110789     1.0932134240    -0.1663525334
   16      C       1.4117981078     2.4857860208    -0.2602031071
   17      C       2.0997062049     3.5417608473     0.1554693078
   18      C       3.1633775652     0.7289083107     0.0120987590
   19      H       6.6043849569    -2.2071551392     0.5457517084
   20      H       4.9730958365    -3.0077285193     0.3864141018
   21      H       5.6238366322    -0.0194634668     0.3187398567
   22      H       2.8660559255    -2.6300396721     0.0395882255
   23      H       0.5403000889    -2.0507618006    -0.2868097652
   24      H      -1.4735956814    -1.0971699700     0.3568083447
   25      H      -1.2725377407    -1.1487460175    -1.4186368615
   26      H      -2.5808918810     0.9829697735    -1.5883681152
   27      H      -3.9334467056     1.7851070897     0.2010292704
   28      H      -2.3021203043     1.5923063466     0.8629488497
   29      H      -4.1358080437     0.7193005342     2.3862740854
   30      H      -2.9741653852    -0.5308453449     1.9456570790
   31      H      -5.6794554336    -0.0509870673     0.6133785078
   32      H      -5.2631445524    -1.4269294905     1.6498677078
   33      H      -5.1177856781    -1.9824408298    -0.8088449212
   34      H      -3.5632478630    -2.1798163656     0.0314003746
   35      H       0.4317031402     2.6245627352    -0.6957909368
   36      H       3.0640682494     3.4596728077     0.6277097609
   37      H       1.7120600437     4.5401204201     0.0462955022
   38      H       3.9096865456     1.5067485215     0.0749631541
 ----------------------------------------------------------------

    9    -772.1386367787      2.03e-06  Convergence criterion met
 Total energy in the final basis set =     -772.1386367787

                    Orbital Energies (a.u.)
 --------------------------------------------------------------

 Alpha MOs
 -- Occupied --
-19.1848 -19.1484 -10.2486 -10.2416 -10.2370 -10.2306 -10.1905 -10.1881
-10.1874 -10.1871 -10.1856 -10.1850 -10.1848 -10.1831 -10.1827 -10.1802
-10.1738 -10.1736  -1.0764  -1.0394  -0.8645  -0.8083  -0.8008  -0.7844
 -0.7739  -0.7316  -0.7289  -0.6930  -0.6437  -0.6377  -0.6270  -0.6073
 -0.5780  -0.5495  -0.5437  -0.5329  -0.5088  -0.4991  -0.4819  -0.4735
 -0.4604  -0.4518  -0.4501  -0.4413  -0.4400  -0.4262  -0.4183  -0.4144
 -0.3972  -0.3841  -0.3816  -0.3785  -0.3741  -0.3632  -0.3548  -0.3411
 -0.3390  -0.3352  -0.3268  -0.3209  -0.2993  -0.2918  -0.2737  -0.2522
 -0.2299  -0.2012

          Ground-State Mulliken Net Atomic Charges

     Atom                 Charge (a.u.)
  ----------------------------------------
      1 C                    -0.359528
      2 C                    -0.111108
      3 C                     0.190372
      4 C                    -0.195781
      5 C                    -0.190567
      6 C                     0.323389
      7 O                    -0.524134
      8 C                    -0.059550
      9 C                     0.120938
     10 C                    -0.283067
     11 C                    -0.280072
     12 C                    -0.272404
     13 C                    -0.034495
     14 O                    -0.478672
     15 C                     0.104810
     16 C                    -0.102772
     17 C                    -0.348664
     18 C                    -0.280856
     19 H                     0.141279
     20 H                     0.138143
     21 H                     0.124593
     22 H                     0.128287
     23 H                     0.135837
     24 H                     0.138977
     25 H                     0.152440
     26 H                     0.146314
     27 H                     0.142006
     28 H                     0.158654
     29 H                     0.142240
     30 H                     0.135830
     31 H                     0.144262
     32 H                     0.134938
     33 H                     0.146480
     34 H                     0.117558
     35 H                     0.145663
     36 H                     0.139205
     37 H                     0.141168
     38 H                     0.128288
  ----------------------------------------
  Sum of atomic charges =     0.000000

                    Cartesian Multipole Moments
 -----------------------------------------------------------------
    Charge (ESU x 10^10)
                 0.0000
    Dipole Moment (Debye)
         X      -1.0891      Y      -0.8586      Z       1.2295
       Tot       1.8533
    Quadrupole Moments (Debye-Ang)
        XX    -102.5591     XY       1.9409     YY    -100.7923
        XZ      -3.7834     YZ      -0.5721     ZZ    -113.0624

 Total job time:  75.79s(wall), 75.58s(cpu)
        *  Thank you very much for using Q-Chem.  Have a nice day.  *
