 Q-Chem 5.2, Q-Chem, Inc., Pleasanton, CA (2019)
 Q-Chem 5.2.1 for Intel X86 EM64T Linux

User input:
--------------------------------------------------------------
$molecule
0 1
C         3.60932864590000    1.23147892310000   -0.43787659800000
C         2.86539002490000    0.33797030360000    0.19755239050000
C         1.40115241420000    0.29031155700000    0.13191578690000
C         0.68789910770000    1.48593878230000    0.18797881250000
C        -0.68818309040000    1.48557685010000    0.19074537020000
C        -1.40206004430000    0.28985878440000    0.14058889260000
C        -2.86602798820000    0.34206485480000    0.21040034780000
C        -3.60852590120000    1.23049223280000   -0.43352053950000
C        -0.69971546350000   -0.91772029230000    0.05183837610000
C        -1.42668825950000   -2.22536252550000   -0.07524890230000
C         0.69824482590000   -0.91688512670000    0.04414562510000
C         1.42842879070000   -2.22199817740000   -0.09209163980000
H         4.68191918440000    1.24971397780000   -0.34263826250000
H         3.17552497510000    1.96870926480000   -1.09309356940000
H         3.34255588160000   -0.39891348660000    0.83150187770000
H         1.22771789100000    2.41821014750000    0.26305031400000
H        -1.22807387940000    2.41776137710000    0.26667267210000
H        -3.34472529200000   -0.38491115530000    0.85459559710000
H        -3.17374532330000    1.95827661390000   -1.09854909420000
H        -4.68075139210000    1.25387710600000   -0.33547666490000
H        -2.50231601170000   -2.08624098380000   -0.09069241130000
H        -1.16944463970000   -2.88914052480000    0.75012398820000
H        -1.14401410390000   -2.72547453210000   -1.00148966050000
H         1.06302570540000   -2.77266285840000   -0.95785115420000
H         1.26645805460000   -2.84547794460000    0.78773988150000
H         2.49488927080000   -2.07020877810000   -0.22134839200000
$end

$rem
BASIS = 6-31G*
GUI = 2
METHOD = B3LYP
PRINT_ORBITALS false
MOLDEN_FORMAT false
--------------------------------------------------------------

             Standard Nuclear Orientation (Angstroms)
    I     Atom           X                Y                Z
 ----------------------------------------------------------------
    1      C       3.6098213895    -1.2677782326     0.4008756641
    2      C       2.8648814268    -0.3630752050    -0.2173065165
    3      C       1.4007770837    -0.3163458307    -0.1481245936
    4      C       0.6871891744    -1.5106823773    -0.2239554119
    5      C      -0.6888956910    -1.5100495636    -0.2241639533
    6      C      -1.4024464852    -0.3152876013    -0.1515913156
    7      C      -2.8665512357    -0.3660172697    -0.2195989186
    8      C      -3.6080285299    -1.2655497758     0.4099192770
    9      C      -0.6997044643     0.8904238568    -0.0428470167
   10      C      -1.4261869682     2.1957370645     0.1086436894
   11      C       0.6982674802     0.8892274190    -0.0377619695
   12      C       1.4289556579     2.1916151647     0.1201311483
   13      H       4.6822302624    -1.2845028961     0.3033419986
   14      H       3.1770880578    -2.0163864191     1.0437839995
   15      H       3.3410161643     0.3848041754    -0.8390372230
   16      H       1.2266871222    -2.4415708941    -0.3164674719
   17      H      -1.2291070130    -2.4406618752    -0.3155284142
   18      H      -3.3462988898     0.3722909694    -0.8499764877
   19      H      -3.1721591240    -2.0050268187     1.0611940261
   20      H      -4.6804381646    -1.2870277472     0.3134660278
   21      H      -2.5018112787     2.0565382750     0.1236238861
   22      H      -1.1703425666     2.8739356050    -0.7053626389
   23      H      -1.1417019261     2.6793800968     1.0430399210
   24      H       1.0652624540     2.7269749245     0.9961492551
   25      H       1.2654778144     2.8305504521    -0.7482591664
   26      H       2.4956240591     2.0373962582     0.2447117892
 ----------------------------------------------------------------

    8    -465.6699021079      3.69e-06  Convergence criterion met
 Total energy in the final basis set =     -465.6699021079

                    Orbital Energies (a.u.)
 --------------------------------------------------------------

 Alpha MOs
 -- Occupied --
-10.1871 -10.1865 -10.1858 -10.1858 -10.1851 -10.1850 -10.1766 -10.1765
-10.1762 -10.1759 -10.1757 -10.1751  -0.8659  -0.8068  -0.7825  -0.7583
 -0.7321  -0.6873  -0.6718  -0.6221  -0.5864  -0.5557  -0.5349  -0.5019
 -0.4793  -0.4640  -0.4406  -0.4270  -0.4239  -0.4175  -0.3994  -0.3980
 -0.3928  -0.3835  -0.3800  -0.3537  -0.3471  -0.3278  -0.3221  -0.2914
 -0.2622  -0.2323  -0.2125

          Ground-State Mulliken Net Atomic Charges

     Atom                 Charge (a.u.)
  ----------------------------------------
      1 C                    -0.335442
      2 C                    -0.142629
      3 C                     0.107067
      4 C                    -0.184220
      5 C                    -0.183975
      6 C                     0.106789
      7 C                    -0.143580
      8 C                    -0.335119
      9 C                     0.061071
     10 C                    -0.530213
     11 C                     0.060960
     12 C                    -0.531216
     13 H                     0.139981
     14 H                     0.144339
     15 H                     0.137471
     16 H                     0.125676
     17 H                     0.125739
     18 H                     0.137690
     19 H                     0.144207
     20 H                     0.139767
     21 H                     0.156708
     22 H                     0.157944
     23 H                     0.162888
     24 H                     0.160915
     25 H                     0.158798
     26 H                     0.158384
  ----------------------------------------
  Sum of atomic charges =     0.000000

                    Cartesian Multipole Moments
 -----------------------------------------------------------------
    Charge (ESU x 10^10)
                 0.0000
    Dipole Moment (Debye)
         X       0.0095      Y       0.6719      Z      -0.0434
       Tot       0.6734
    Quadrupole Moments (Debye-Ang)
        XX     -67.3418     XY      -0.0137     YY     -67.5841
        XZ      -0.0031     YZ      -1.8305     ZZ     -74.3184

 Total job time:  29.59s(wall), 29.43s(cpu)
        *  Thank you very much for using Q-Chem.  Have a nice day.  *
