 Q-Chem 5.2, Q-Chem, Inc., Pleasanton, CA (2019)
 Q-Chem 5.2.1 for Intel X86 EM64T Linux

User input:
--------------------------------------------------------------
$molecule
0 1
C         2.53276493170000   -2.85119079060000    0.18393466480000
C         2.41076400480000   -1.54718749910000   -0.03921805840000
C         1.17816295920000   -0.77370541280000   -0.02755677010000
C        -0.07875516960000   -1.37476913580000   -0.03091516310000
C        -1.24779643670000   -0.63359299990000   -0.02881229540000
O        -2.50009409320000   -1.18449261490000   -0.02920405310000
C        -2.62128221810000   -2.58371357960000   -0.03786932390000
C        -1.17846709990000    0.77358251340000   -0.02207706940000
C        -2.41145088560000    1.54634867240000   -0.02728974450000
C        -2.53220374250000    2.85441620770000    0.17214289460000
C         0.07865184290000    1.37450741190000   -0.02689109200000
C         1.24759343280000    0.63334206570000   -0.03046897460000
O         2.50014424520000    1.18364892390000   -0.03179089280000
C         2.62186501550000    2.58286469660000   -0.03270234610000
H         3.49447704470000   -3.33367721770000    0.15267067110000
H         1.69677683590000   -3.48931420940000    0.41526068100000
H         3.29667233310000   -0.96048721490000   -0.23741717110000
H        -0.12139364060000   -2.45071799250000   -0.04919479280000
H        -3.69186962660000   -2.78479331920000   -0.03738132670000
H        -2.17066242610000   -3.03373253510000    0.85301364080000
H        -2.17288840620000   -3.02354569360000   -0.93500972930000
H        -3.29982182340000    0.95542320100000   -0.20078841410000
H        -1.69406779370000    3.49939379140000    0.37516342630000
H        -3.49546452860000    3.33418928890000    0.14737104690000
H         0.12175946030000    2.45045951710000   -0.04055801010000
H         3.69253501540000    2.78356313240000   -0.03271316330000
H         2.17274540270000    3.02785567650000    0.86146814090000
H         2.17223367730000    3.02802553050000   -0.92662571750000
$end

$rem
BASIS = 6-31G*
GUI = 2
METHOD = B3LYP
PRINT_ORBITALS false
MOLDEN_FORMAT false
--------------------------------------------------------------

             Standard Nuclear Orientation (Angstroms)
    I     Atom           X                Y                Z
 ----------------------------------------------------------------
    1      C      -2.4317857848    -2.9378112799    -0.1820319131
    2      C      -2.3553316230    -1.6303337715     0.0410449219
    3      C      -1.1504564801    -0.8143350065     0.0293075181
    4      C       0.1266596407    -1.3711969257     0.0326656895
    5      C       1.2691406031    -0.5897006119     0.0304902092
    6      O       2.5398894779    -1.0965902505     0.0308790756
    7      C       2.7098029732    -2.4907329885     0.0396190176
    8      C       1.1507769751     0.8142005589     0.0236784789
    9      C       2.3560600130     1.6294981353     0.0288150681
   10      C       2.4311146201     2.9409699740    -0.1706936512
   11      C      -0.1265347929     1.3709171969     0.0284927362
   12      C      -1.2689164784     0.5894352260     0.0321432281
   13      O      -2.5398976397     1.0957237364     0.0334680774
   14      C      -2.7103430373     2.4898432512     0.0343048741
   15      H      -3.3760849934    -3.4535428482    -0.1507152706
   16      H      -1.5740569734    -3.5464038799    -0.4133448030
   17      H      -3.2611577011    -1.0748759031     0.2392351102
   18      H       0.2067971493    -2.4450031508     0.0510040936
   19      H       3.7867518904    -2.6543528936     0.0391135194
   20      H       2.2751299246    -2.9562442933    -0.8512268052
   21      H       2.2770437058    -2.9458848337     0.9367959345
   22      H       3.2645037950     1.0699245694     0.2023228307
   23      H       1.5709894255     3.5563130820    -0.3737276325
   24      H       3.3770575820     3.4540470292    -0.1459743429
   25      H      -0.2071404820     2.4447121145     0.0421008922
   26      H      -3.7873612092     2.6530791770     0.0343332158
   27      H      -2.2770382560     2.9501763048    -0.8599024312
   28      H      -2.2764883350     2.9504650888     0.9281914006
 ----------------------------------------------------------------

    8    -616.0876280792      4.10e-06  Convergence criterion met
 Total energy in the final basis set =     -616.0876280792

                    Orbital Energies (a.u.)
 --------------------------------------------------------------

 Alpha MOs
 -- Occupied --
-19.1752 -19.1752 -10.2396 -10.2396 -10.2387 -10.2387 -10.1904 -10.1903
-10.1821 -10.1821 -10.1807 -10.1805 -10.1725 -10.1725  -1.0655  -1.0646
 -0.8593  -0.8051  -0.7602  -0.7562  -0.7202  -0.7175  -0.6732  -0.6394
 -0.5860  -0.5716  -0.5594  -0.5198  -0.5154  -0.5029  -0.4714  -0.4680
 -0.4542  -0.4505  -0.4444  -0.4305  -0.4236  -0.4150  -0.3939  -0.3895
 -0.3700  -0.3520  -0.3508  -0.3473  -0.3353  -0.3115  -0.3063  -0.3008
 -0.2550  -0.2229  -0.1892

          Ground-State Mulliken Net Atomic Charges

     Atom                 Charge (a.u.)
  ----------------------------------------
      1 C                    -0.353538
      2 C                    -0.100807
      3 C                     0.113091
      4 C                    -0.280117
      5 C                     0.324131
      6 O                    -0.516661
      7 C                    -0.211448
      8 C                     0.113767
      9 C                    -0.100845
     10 C                    -0.354005
     11 C                    -0.280420
     12 C                     0.324554
     13 O                    -0.516616
     14 C                    -0.211467
     15 H                     0.141337
     16 H                     0.134799
     17 H                     0.149722
     18 H                     0.129843
     19 H                     0.167777
     20 H                     0.150365
     21 H                     0.151345
     22 H                     0.149921
     23 H                     0.134740
     24 H                     0.141341
     25 H                     0.129702
     26 H                     0.167780
     27 H                     0.150484
     28 H                     0.151223
  ----------------------------------------
  Sum of atomic charges =     0.000000

                    Cartesian Multipole Moments
 -----------------------------------------------------------------
    Charge (ESU x 10^10)
                 0.0000
    Dipole Moment (Debye)
         X      -0.0042      Y      -0.0046      Z       0.0798
       Tot       0.0801
    Quadrupole Moments (Debye-Ang)
        XX     -78.2762     XY      -8.4936     YY     -68.7699
        XZ      -0.0247     YZ       0.0118     ZZ     -86.5950

 Total job time:  36.98s(wall), 36.86s(cpu)
        *  Thank you very much for using Q-Chem.  Have a nice day.  *
