 Q-Chem 5.4, Q-Chem, Inc., Pleasanton, CA (2021)
 Q-Chem 5.4.2 for Intel X86 EM64T Linux

User input:
--------------------------------------------------------------
$molecule
0 1
C            1.98295384590000        2.66831218680000       -0.36419853090000
C            0.71824458450000        2.67524912060000       -0.76436598310000
C           -0.29555790430000        1.67073294070000       -0.45251151800000
C           -1.61049328580000        2.09652276890000       -0.27397429870000
C           -2.61726726130000        1.21595474160000        0.06715739620000
C           -2.35767010770000       -0.14018152230000        0.21084130780000
C           -3.42082034380000       -1.13510482490000        0.55084881770000
C           -1.04996126660000       -0.55972429640000        0.00286168100000
F           -0.80016626580000       -1.88602691330000        0.06612305120000
C           -0.00323622410000        0.30320292350000       -0.31189176290000
C            1.33532229660000       -0.22461130830000       -0.57672057710000
C            1.94904948340000       -1.14817270570000        0.14384512380000
F            1.52872267100000       -1.68897344390000        1.27695998140000
F            3.15713016890000       -1.62547535160000       -0.15059670880000
H            2.65492605730000        3.46845630720000       -0.62399837570000
H            2.38810563360000        1.88944596190000        0.25818786630000
H            0.34939689410000        3.51849673640000       -1.33583917190000
H           -1.83750036620000        3.14616725470000       -0.38865080030000
H           -3.62340640140000        1.57900759950000        0.21379399600000
H           -4.36905905630000       -0.63855524970000        0.73577386720000
H           -3.13538088070000       -1.70306654310000        1.43510761450000
H           -3.54552607520000       -1.84559713940000       -0.26581993870000
H            1.86203997640000        0.16289820570000       -1.43601894480000
$end

$rem
BASIS = 6-31G*
GUI = 2
METHOD = B3LYP
PRINT_ORBITALS false
MOLDEN_FORMAT false
$end
--------------------------------------------------------------

             Standard Nuclear Orientation (Angstroms)
    I     Atom           X                Y                Z
 ----------------------------------------------------------------
    1      C       1.6498344807    -2.8647134688    -0.3561372599
    2      C       0.4108097765    -2.7882495091     0.1114551608
    3      C      -0.4522828360    -1.6097785488     0.0919927045
    4      C      -1.8205624334    -1.7994267469    -0.0925935306
    5      C      -2.6959346272    -0.7348273539    -0.1682002541
    6      C      -2.2430943879     0.5698152836    -0.0268332817
    7      C      -3.1572461806     1.7521806728    -0.0727080633
    8      C      -0.8819846791     0.7477712553     0.1855016195
    9      F      -0.4407947597     2.0067972534     0.3992378265
   10      C       0.0346853675    -0.2993354247     0.2367857134
   11      C       1.4440402046    -0.0340644890     0.5262876157
   12      C       2.1653690463     0.9352924181    -0.0111819486
   13      F       1.7953065034     1.7708607627    -0.9692887297
   14      F       3.4391740430     1.1630716290     0.3042704451
   15      H       2.2036617979    -3.7873809248    -0.3210189733
   16      H       2.1465708529    -2.0284599747    -0.8166570369
   17      H      -0.0611149567    -3.6800573539     0.5059961346
   18      H      -2.1967341001    -2.8064179110    -0.1969972363
   19      H      -3.7487072760    -0.9135971921    -0.3273754223
   20      H      -4.1736972965     1.4453835642    -0.3020943609
   21      H      -2.8180320000     2.4607272844    -0.8269396319
   22      H      -3.1505199335     2.2697269174     0.8861450789
   23      H       1.9335984428    -0.6744757474     1.2447547157
 ----------------------------------------------------------------

    9    -724.0604805233      4.07e-06  Convergence criterion met
 Total energy in the final basis set =     -724.0604805233

                    Orbital Energies (a.u.)
 --------------------------------------------------------------

 Alpha MOs
 -- Occupied --
-24.7332 -24.7292 -24.7066 -10.3510 -10.2679 -10.2102 -10.2033 -10.2018
-10.1983 -10.1958 -10.1932 -10.1897 -10.1860 -10.1842  -1.2782  -1.2201
 -1.2159  -0.8788  -0.8182  -0.7965  -0.7562  -0.7393  -0.6928  -0.6487
 -0.6105  -0.6082  -0.5796  -0.5627  -0.5424  -0.5156  -0.5101  -0.4907
 -0.4761  -0.4627  -0.4580  -0.4398  -0.4348  -0.4316  -0.4242  -0.4164
 -0.4074  -0.4027  -0.3917  -0.3759  -0.3629  -0.3604  -0.3422  -0.2924
 -0.2835  -0.2331  -0.2211

          Ground-State Mulliken Net Atomic Charges

     Atom                 Charge (a.u.)
  ----------------------------------------
      1 C                    -0.339261
      2 C                    -0.138200
      3 C                     0.115309
      4 C                    -0.190577
      5 C                    -0.177074
      6 C                     0.100826
      7 C                    -0.520516
      8 C                     0.268712
      9 F                    -0.289310
     10 C                     0.039334
     11 C                    -0.334780
     12 C                     0.570132
     13 F                    -0.234256
     14 F                    -0.250081
     15 H                     0.145455
     16 H                     0.159376
     17 H                     0.136127
     18 H                     0.129030
     19 H                     0.129396
     20 H                     0.155086
     21 H                     0.173264
     22 H                     0.172632
     23 H                     0.179376
  ----------------------------------------
  Sum of atomic charges =     0.000000

                    Cartesian Multipole Moments
 -----------------------------------------------------------------
    Charge (ESU x 10^10)
                 0.0000
    Dipole Moment (Debye)
         X      -1.4617      Y      -1.5905      Z       0.2076
       Tot       2.1701
    Quadrupole Moments (Debye-Ang)
        XX     -72.9555     XY      -2.9561     YY     -75.2154
        XZ       0.6194     YZ      -0.7148     ZZ     -79.5737

 Total job time:  62.48s(wall), 58.31s(cpu)
        *  Thank you very much for using Q-Chem.  Have a nice day.  *
