 Q-Chem 5.2, Q-Chem, Inc., Pleasanton, CA (2019)
 Q-Chem 5.2.1 for Intel X86 EM64T Linux

User input:
--------------------------------------------------------------
$molecule
0 1
C         3.81521736260000   -0.31906044950000    0.04785391230000
C         2.79323029360000    0.53239598580000    0.00126314420000
C         1.40346470570000    0.16314215030000   -0.00516301330000
C         0.81567687940000   -1.07640372690000    0.02321486540000
C        -0.59060599220000   -1.05802114800000    0.00964163010000
C        -1.39619843710000   -2.31568264990000    0.01644127800000
C        -1.10026068190000    0.22513426950000   -0.02813081650000
C        -2.44349156770000    0.73911449710000   -0.05539961280000
C        -3.58212644080000    0.06895814040000    0.11082282380000
S         0.18761726870000    1.39857358510000   -0.05645538370000
H         4.83283736470000    0.02914336170000    0.04941475860000
H         3.67239265330000   -1.38497730500000    0.08584762260000
H         2.98212401500000    1.59764106770000   -0.03513982830000
H         1.38237887410000   -1.99029623520000    0.05129681440000
H        -0.74114487230000   -3.17449515010000   -0.11032076250000
H        -2.12545839020000   -2.30985105580000   -0.79215668630000
H        -1.92853476880000   -2.42734188300000    0.96092518830000
H        -2.49246629910000    1.80908881570000   -0.22090913130000
H        -3.62540182300000   -0.98597563590000    0.30364200310000
H        -4.52716733450000    0.58252556250000    0.06666490790000
$end

$rem
BASIS = 6-31G*
GUI = 2
METHOD = B3LYP
PRINT_ORBITALS false
MOLDEN_FORMAT false
--------------------------------------------------------------

             Standard Nuclear Orientation (Angstroms)
    I     Atom           X                Y                Z
 ----------------------------------------------------------------
    1      C       3.8066584688    -0.5091788468     0.0436001253
    2      C       2.8403548372     0.4058235784     0.0184171200
    3      C       1.4301540357     0.1250359330     0.0002490889
    4      C       0.7655353501    -1.0753910002    -0.0053182470
    5      C      -0.6367640405    -0.9682182986    -0.0202881504
    6      C      -1.5198290477    -2.1724420313    -0.0482035663
    7      C      -1.0646434941     0.3450084754    -0.0244232699
    8      C      -2.3728243356     0.9430189547    -0.0397473312
    9      C      -3.5518272158     0.3416397861     0.1069636741
   10      S       0.2945226629     1.4354377878    -0.0196278205
   11      H       4.8441428614    -0.2258502380     0.0558407783
   12      H       3.5970051777    -1.5646315545     0.0528867660
   13      H       3.0959388040     1.4576654749     0.0107647001
   14      H       1.2735878647    -2.0235484550    -0.0009197624
   15      H      -0.9196696533    -3.0670874722    -0.1970018681
   16      H      -2.2448310424    -2.0992353320    -0.8573374498
   17      H      -2.0609857994    -2.2754744421     0.8922395759
   18      H      -2.3539495875     2.0179781810    -0.1766537708
   19      H      -3.6619065184    -0.7132368566     0.2714479674
   20      H      -4.4625820623     0.9146367850     0.0752815302
 ----------------------------------------------------------------

    9    -747.1188979490      3.99e-06  Convergence criterion met
 Total energy in the final basis set =     -747.1188979490

                    Orbital Energies (a.u.)
 --------------------------------------------------------------

 Alpha MOs
 -- Occupied --
-88.9019 -10.2161 -10.2136 -10.1979 -10.1972 -10.1965 -10.1855 -10.1853
-10.1817 -10.1793  -7.9638  -5.9276  -5.9242  -5.9209  -0.8893  -0.8064
 -0.7758  -0.7619  -0.7074  -0.6788  -0.6132  -0.5967  -0.5416  -0.5092
 -0.4851  -0.4708  -0.4387  -0.4304  -0.4244  -0.4160  -0.3966  -0.3800
 -0.3662  -0.3580  -0.3455  -0.3368  -0.3181  -0.2699  -0.2463  -0.1959

          Ground-State Mulliken Net Atomic Charges

     Atom                 Charge (a.u.)
  ----------------------------------------
      1 C                    -0.341885
      2 C                    -0.089118
      3 C                    -0.127103
      4 C                    -0.163404
      5 C                     0.183813
      6 C                    -0.535354
      7 C                    -0.188873
      8 C                    -0.089230
      9 C                    -0.355758
     10 S                     0.227767
     11 H                     0.146413
     12 H                     0.141935
     13 H                     0.136641
     14 H                     0.132107
     15 H                     0.156260
     16 H                     0.170692
     17 H                     0.169688
     18 H                     0.134965
     19 H                     0.146568
     20 H                     0.143877
  ----------------------------------------
  Sum of atomic charges =     0.000000

                    Cartesian Multipole Moments
 -----------------------------------------------------------------
    Charge (ESU x 10^10)
                -0.0000
    Dipole Moment (Debye)
         X      -0.0999      Y      -0.9000      Z      -0.0065
       Tot       0.9055
    Quadrupole Moments (Debye-Ang)
        XX     -60.4446     XY       0.0568     YY     -61.6779
        XZ      -0.0275     YZ      -0.3808     ZZ     -70.9572

 Total job time:  23.47s(wall), 23.32s(cpu)
        *  Thank you very much for using Q-Chem.  Have a nice day.  *
