 Q-Chem 5.4, Q-Chem, Inc., Pleasanton, CA (2021)
 Q-Chem 5.4.2 for Intel X86 EM64T Linux

User input:
--------------------------------------------------------------
$molecule
0 1
C           -1.60965019790000        3.89618166310000       -0.02581178150000
C           -0.46869747460000        3.21810210000000       -0.03928810140000
C           -0.31469967750000        1.76712141440000        0.00965960650000
C           -1.40276097080000        0.89604890930000       -0.02403362820000
C           -1.22833668410000       -0.48571912400000        0.02618272340000
C           -2.33295731870000       -1.43368632020000       -0.00516261300000
C           -3.63246401970000       -1.18510170850000       -0.06588571800000
F           -4.23868519640000       -0.00449778830000       -0.11345485290000
F           -4.55656819660000       -2.14204555290000       -0.08816234490000
C            0.06616640730000       -0.99668934650000        0.10941358160000
C            1.16068715430000       -0.14202782100000        0.14202991010000
C            2.51514296940000       -0.74765103280000        0.22848195500000
O            2.71837490720000       -1.93728499780000        0.25345384170000
O            3.48298965720000        0.17470718980000        0.28775870850000
C            4.82611230810000       -0.30337884080000        0.35782779870000
C            5.36973228030000       -0.64065308710000       -1.02322967250000
C            0.97110976410000        1.23314243440000        0.09070340750000
H           -1.61786511730000        4.97190242510000       -0.06282308200000
H           -2.57436538730000        3.42154578030000        0.02535075980000
H            0.46586068950000        3.76363270750000       -0.08244611010000
H           -2.39528826990000        1.30599599370000       -0.09566943920000
H           -2.06601915500000       -2.48003126660000        0.02717828930000
H            0.24215361920000       -2.06104177150000        0.14919778980000
H            4.85387574250000       -1.18899693570000        1.00130898020000
H            5.39240373750000        0.50960819500000        0.81724777540000
H            4.79976679060000       -1.45924216100000       -1.45578074450000
H            6.41030994540000       -0.94102315050000       -0.94138099860000
H            5.29899887530000        0.22466742270000       -1.67809475980000
H            1.82902371030000        1.88711802190000        0.11621981860000
$end

$rem
BASIS = 6-31G*
GUI = 2
METHOD = B3LYP
PRINT_ORBITALS false
MOLDEN_FORMAT false
$end
--------------------------------------------------------------

             Standard Nuclear Orientation (Angstroms)
    I     Atom           X                Y                Z
 ----------------------------------------------------------------
    1      C       1.8105335512    -3.8175624289    -0.0313598521
    2      C       0.6550911350    -3.1643730003    -0.0379184516
    3      C       0.4699406681    -1.7171194340     0.0133901145
    4      C       1.5386604593    -0.8226248304    -0.0253052772
    5      C       1.3345961217     0.5549882350     0.0273103076
    6      C       2.4182167961     1.5267163333    -0.0090465151
    7      C       3.7224566189     1.3064282660    -0.0770973992
    8      F       4.3538629662     0.1392934865    -0.1292029180
    9      F       4.6254608545     2.2832077266    -0.1033944509
   10      C       0.0297928233     1.0376876208     0.1181169880
   11      C      -1.0457464902     0.1594610531     0.1557878585
   12      C      -2.4125220907     0.7354879772     0.2502411606
   13      O      -2.6413590967     1.9204110467     0.2775675319
   14      O      -3.3598057198    -0.2076971105     0.3138120005
   15      C      -4.7125753343     0.2410837266     0.3916870007
   16      C      -5.2709126192     0.5677768623    -0.9860384442
   17      C      -0.8266819437    -1.2112261407     0.1019866569
   18      H       1.8418668194    -4.8928170904    -0.0695451660
   19      H       2.7649964632    -3.3221650547     0.0150536664
   20      H      -0.2676415293    -3.7300018661    -0.0765660404
   21      H       2.5394364975    -1.2108843980    -0.1027686261
   22      H       2.1288363459     2.5669957285     0.0258447306
   23      H      -0.1690091846     2.0979356944     0.1599756864
   24      H      -4.7560192176     1.1252912321     1.0362395319
   25      H      -5.2585904815    -0.5844207426     0.8533258733
   26      H      -4.7211990777     1.3989366793    -1.4208229221
   27      H      -6.3172955305     0.8454336757    -0.8982161545
   28      H      -5.1850117326    -0.2951953728    -1.6421870866
   29      H      -1.6700633995    -1.8836763313     0.1314816836
 ----------------------------------------------------------------

    9    -852.7135432788      6.29e-06  Convergence criterion met
 Total energy in the final basis set =     -852.7135432788

                    Orbital Energies (a.u.)
 --------------------------------------------------------------

 Alpha MOs
 -- Occupied --
-24.7494 -24.7384 -19.1923 -19.1332 -10.3617 -10.3147 -10.2436 -10.2144
-10.2071 -10.2045 -10.2045 -10.1979 -10.1974 -10.1972 -10.1957 -10.1857
-10.1808  -1.2904  -1.2292  -1.1094  -1.0181  -0.8810  -0.8212  -0.8032
 -0.7751  -0.7484  -0.7366  -0.6755  -0.6541  -0.6328  -0.6183  -0.5892
 -0.5714  -0.5510  -0.5410  -0.5237  -0.5085  -0.4981  -0.4881  -0.4721
 -0.4676  -0.4549  -0.4454  -0.4425  -0.4415  -0.4327  -0.4186  -0.4137
 -0.4087  -0.3953  -0.3811  -0.3801  -0.3759  -0.3594  -0.3521  -0.3403
 -0.3247  -0.3003  -0.2907  -0.2749  -0.2392  -0.2260

          Ground-State Mulliken Net Atomic Charges

     Atom                 Charge (a.u.)
  ----------------------------------------
      1 C                    -0.353767
      2 C                    -0.110091
      3 C                     0.177066
      4 C                    -0.248035
      5 C                     0.195487
      6 C                    -0.296866
      7 C                     0.547111
      8 F                    -0.233460
      9 F                    -0.245380
     10 C                    -0.233240
     11 C                     0.050217
     12 C                     0.603957
     13 O                    -0.492955
     14 O                    -0.468235
     15 C                    -0.045964
     16 C                    -0.464465
     17 C                    -0.238501
     18 H                     0.147781
     19 H                     0.148765
     20 H                     0.130651
     21 H                     0.141437
     22 H                     0.166446
     23 H                     0.160276
     24 H                     0.169221
     25 H                     0.151581
     26 H                     0.179257
     27 H                     0.152172
     28 H                     0.156764
     29 H                     0.152772
  ----------------------------------------
  Sum of atomic charges =     0.000000

                    Cartesian Multipole Moments
 -----------------------------------------------------------------
    Charge (ESU x 10^10)
                 0.0000
    Dipole Moment (Debye)
         X      -1.0201      Y      -1.6631      Z      -0.1251
       Tot       1.9550
    Quadrupole Moments (Debye-Ang)
        XX     -87.3894     XY       2.9346     YY     -94.7385
        XZ       0.1216     YZ      -0.2401     ZZ     -97.9560

 Total job time:  90.70s(wall), 80.15s(cpu)
        *  Thank you very much for using Q-Chem.  Have a nice day.  *
