 Q-Chem 5.4, Q-Chem, Inc., Pleasanton, CA (2021)
 Q-Chem 5.4.2 for Intel X86 EM64T Linux

User input:
--------------------------------------------------------------
$molecule
0 1
C           -1.61390377560000        3.89589266580000       -0.02585958400000
C           -0.47222465200000        3.21911981400000       -0.04139301400000
C           -0.31655227060000        1.76827932660000        0.00638883910000
C           -1.40358456320000        0.89596639940000       -0.02863068590000
C           -1.22756919960000       -0.48562730010000        0.02086893100000
C           -2.33096624220000       -1.43497177110000       -0.01192427510000
C           -3.63110107360000       -1.18786328220000       -0.06471195100000
F           -4.23917888420000       -0.00777462130000       -0.10092635920000
F           -4.55396926320000       -2.14594941380000       -0.08864105510000
C            0.06745656970000       -0.99510842270000        0.10490592240000
C            1.16094896180000       -0.13919719550000        0.13915931010000
C            2.51580519470000       -0.74345398720000        0.22894795730000
O            2.71968423990000       -1.93280777370000        0.26147189510000
O            3.48319691630000        0.17969157760000        0.28262359460000
C            4.82625839730000       -0.29763626200000        0.35899350710000
C            5.37031655700000       -0.65458448350000       -1.01690274970000
C            0.96983024200000        1.23576811340000        0.08812373120000
H           -1.62335234610000        4.97164649550000       -0.06167975540000
H           -2.57801156690000        3.42013420490000        0.02626317630000
H            0.46165595320000        3.76576268760000       -0.08507734170000
H           -2.39654175380000        1.30478570320000       -0.10088794250000
H           -2.06237896810000       -2.48109904280000        0.01289985950000
H            0.24465205760000       -2.05925749580000        0.14466604660000
H            4.85398733970000       -1.17409653630000        1.01490064970000
H            5.39250027900000        0.52170302490000        0.80701338530000
H            4.80157298520000       -1.48034467490000       -1.43721984720000
H            6.41132875250000       -0.95220235920000       -0.93044244850000
H            5.29839490140000        0.20085589070000       -1.68448511910000
H            1.82694679570000        1.89074805510000        0.11461417630000
$end

$rem
BASIS = 6-31G*
GUI = 2
METHOD = B3LYP
PRINT_ORBITALS false
MOLDEN_FORMAT false
$end
--------------------------------------------------------------

             Standard Nuclear Orientation (Angstroms)
    I     Atom           X                Y                Z
 ----------------------------------------------------------------
    1      C       1.8153386259    -3.8169686633    -0.0316582978
    2      C       0.6590862984    -3.1652786897    -0.0403032528
    3      C       0.4720281133    -1.7182354884     0.0099990783
    4      C       1.5395491091    -0.8223507930    -0.0298123696
    5      C       1.3336744297     0.5550160351     0.0222357624
    6      C       2.4158858690     1.5282689716    -0.0153471414
    7      C       3.7208046667     1.3096732747    -0.0753686104
    8      F       4.3543036356     0.1431867788    -0.1162056758
    9      F       4.6223895883     2.2877132655    -0.1031127693
   10      C       0.0283017644     1.0360004880     0.1137842967
   11      C      -1.0460399692     0.1563732673     0.1528832349
   12      C      -2.4132666901     0.7307978444     0.2506133835
   13      O      -2.6428912265     1.9153798938     0.2856111197
   14      O      -3.3599672144    -0.2133136058     0.3083822136
   15      C      -4.7127024740     0.2344840560     0.3924830063
   16      C      -5.2718025341     0.5809044414    -0.9800700393
   17      C      -0.8252187390    -1.2140352489     0.0992261825
   18      H       1.8480835060    -4.8922213477    -0.0687810637
   19      H       2.7690933808    -3.3203198837     0.0158662813
   20      H      -0.2628557373    -3.7321435282    -0.0796335748
   21      H       2.5407946757    -1.2093078196    -0.1078501276
   22      H       2.1246557386     2.5682534209     0.0121298760
   23      H      -0.1718730600     2.0959830244     0.1557297438
   24      H      -4.7560429730     1.1094420317     1.0495490822
   25      H      -5.2585048088    -0.5974968191     0.8425676448
   26      H      -4.7234906635     1.4193303114    -1.4024582015
   27      H      -6.3185864454     0.8556221047    -0.8877021698
   28      H      -5.1848021672    -0.2720611448    -1.6490228203
   29      H      -1.6676737542    -1.8876080231     0.1295332693
 ----------------------------------------------------------------

    9    -852.7135269594      6.29e-06  Convergence criterion met
 Total energy in the final basis set =     -852.7135269594

                    Orbital Energies (a.u.)
 --------------------------------------------------------------

 Alpha MOs
 -- Occupied --
-24.7494 -24.7384 -19.1923 -19.1332 -10.3617 -10.3147 -10.2437 -10.2144
-10.2071 -10.2045 -10.2045 -10.1979 -10.1974 -10.1972 -10.1957 -10.1857
-10.1807  -1.2904  -1.2292  -1.1094  -1.0181  -0.8810  -0.8212  -0.8032
 -0.7750  -0.7484  -0.7366  -0.6755  -0.6541  -0.6328  -0.6183  -0.5892
 -0.5714  -0.5509  -0.5409  -0.5237  -0.5084  -0.4981  -0.4881  -0.4721
 -0.4676  -0.4550  -0.4454  -0.4425  -0.4415  -0.4327  -0.4186  -0.4137
 -0.4087  -0.3952  -0.3811  -0.3801  -0.3757  -0.3594  -0.3521  -0.3404
 -0.3247  -0.3003  -0.2907  -0.2748  -0.2392  -0.2260

          Ground-State Mulliken Net Atomic Charges

     Atom                 Charge (a.u.)
  ----------------------------------------
      1 C                    -0.353741
      2 C                    -0.110104
      3 C                     0.177017
      4 C                    -0.247989
      5 C                     0.195467
      6 C                    -0.296898
      7 C                     0.547132
      8 F                    -0.233498
      9 F                    -0.245366
     10 C                    -0.233221
     11 C                     0.050212
     12 C                     0.604026
     13 O                    -0.492993
     14 O                    -0.468274
     15 C                    -0.045651
     16 C                    -0.464729
     17 C                    -0.238494
     18 H                     0.147777
     19 H                     0.148762
     20 H                     0.130660
     21 H                     0.141433
     22 H                     0.166450
     23 H                     0.160283
     24 H                     0.168950
     25 H                     0.151567
     26 H                     0.179607
     27 H                     0.152101
     28 H                     0.156731
     29 H                     0.152784
  ----------------------------------------
  Sum of atomic charges =     0.000000

                    Cartesian Multipole Moments
 -----------------------------------------------------------------
    Charge (ESU x 10^10)
                 0.0000
    Dipole Moment (Debye)
         X      -1.0183      Y      -1.6613      Z      -0.1353
       Tot       1.9533
    Quadrupole Moments (Debye-Ang)
        XX     -87.4054     XY       2.9271     YY     -94.7184
        XZ       0.1064     YZ      -0.2912     ZZ     -97.9596

 Total job time:  88.45s(wall), 81.40s(cpu)
        *  Thank you very much for using Q-Chem.  Have a nice day.  *
