 Q-Chem 5.2, Q-Chem, Inc., Pleasanton, CA (2019)
 Q-Chem 5.2.1 for Intel X86 EM64T Linux

User input:
--------------------------------------------------------------
$molecule
0 1
C        -0.69789730190000    3.28239899940000   -0.49321124640000
C         0.21915736170000    2.57702101380000    0.15734356690000
C         0.36733536350000    1.13217868300000    0.10769039380000
C        -0.66244229070000    0.22044470640000    0.08610144610000
C        -2.05982212520000    0.51876817260000    0.22284125590000
C        -3.06614160540000   -0.32995099170000    0.04851168690000
F        -2.98509299010000   -1.60030645120000   -0.32487053860000
F        -4.34344097540000    0.00303517270000    0.21802069670000
S        -0.10152522720000   -1.43621009970000   -0.00072268310000
C         1.55346512230000   -0.90645592130000    0.00384568260000
C         2.67796019530000   -1.71621776810000   -0.05296243330000
C         3.91935527660000   -1.11568779420000   -0.04155974220000
C         4.03796554950000    0.27284982540000    0.01968645360000
C         2.92233989030000    1.07741427640000    0.07086793530000
C         1.65189620580000    0.49558042790000    0.07105861870000
H        -0.74096259430000    4.35501283500000   -0.41202062630000
H        -1.41357713680000    2.82344674100000   -1.15412098430000
H         0.96023771250000    3.08818895530000    0.75922414820000
H        -2.31811593010000    1.52612385390000    0.51394008670000
H         2.57398759550000   -2.78873558600000   -0.10485107440000
H         4.80882791820000   -1.72576201190000   -0.08294039430000
H         5.02080664350000    0.71987328190000    0.02371356680000
H         3.02244187160000    2.15144922970000    0.10819079870000
$end

$rem
BASIS = 6-31G*
GUI = 2
METHOD = B3LYP
PRINT_ORBITALS false
MOLDEN_FORMAT false
--------------------------------------------------------------

             Standard Nuclear Orientation (Angstroms)
    I     Atom           X                Y                Z
 ----------------------------------------------------------------
    1      C       0.8470366369    -3.2162473972    -0.4807947985
    2      C      -0.0846895304    -2.5274447900     0.1666665836
    3      C      -0.2620510932    -1.0860714781     0.1121012988
    4      C       0.7490715589    -0.1537448471     0.0883320060
    5      C       2.1520842648    -0.4232536346     0.2272039925
    6      C       3.1411648551     0.4450925044     0.0508847274
    7      F       3.0347388876     1.7123073339    -0.3267741761
    8      F       4.4247946677     0.1386044542     0.2225423812
    9      S       0.1547994528     1.4909146209    -0.0044442107
   10      C      -1.4891274455     0.9277689343     0.0005262235
   11      C      -2.6297388252     1.7143987634    -0.0598871222
   12      C      -3.8587282716     1.0888911726    -0.0475091889
   13      C      -3.9492506059    -0.3015542387     0.0182439824
   14      C      -2.8176070826    -1.0831859573     0.0730062327
   15      C      -1.5592066710    -0.4757439973     0.0723073786
   16      H       0.9117415551    -4.2874953745    -0.3960125991
   17      H       1.5538608988    -2.7450774643    -1.1426368040
   18      H      -0.8157994571    -3.0515285656     0.7696321350
   19      H       2.4304661378    -1.4242057899     0.5218529415
   20      H      -2.5474600608     2.7886253262    -0.1152468474
   21      H      -4.7603355018     1.6806861607    -0.0916406320
   22      H      -4.9228411500    -0.7683755320     0.0229489723
   23      H      -2.8959724043    -2.1588989943     0.1138084640
 ----------------------------------------------------------------

    9   -1059.9198671581      7.29e-06  Convergence criterion met
 Total energy in the final basis set =    -1059.9198671581

                    Orbital Energies (a.u.)
 --------------------------------------------------------------

 Alpha MOs
 -- Occupied --
-88.9045 -24.7483 -24.7393 -10.3616 -10.2340 -10.2186 -10.2110 -10.2018
-10.2007 -10.1981 -10.1953 -10.1915 -10.1902 -10.1883 -10.1882  -7.9661
 -5.9304  -5.9267  -5.9224  -1.2895  -1.2295  -0.9031  -0.8459  -0.8036
 -0.7994  -0.7600  -0.7249  -0.7082  -0.6540  -0.6162  -0.6078  -0.5933
 -0.5784  -0.5487  -0.5234  -0.5196  -0.5015  -0.4794  -0.4652  -0.4551
 -0.4453  -0.4442  -0.4345  -0.4253  -0.4202  -0.4068  -0.3930  -0.3891
 -0.3607  -0.3501  -0.3445  -0.3350  -0.3040  -0.2881  -0.2644  -0.2277
 -0.2037

          Ground-State Mulliken Net Atomic Charges

     Atom                 Charge (a.u.)
  ----------------------------------------
      1 C                    -0.345608
      2 C                    -0.120872
      3 C                     0.105564
      4 C                    -0.213541
      5 C                    -0.244906
      6 C                     0.539798
      7 F                    -0.226397
      8 F                    -0.245374
      9 S                     0.239966
     10 C                    -0.143262
     11 C                    -0.178893
     12 C                    -0.116128
     13 C                    -0.143708
     14 C                    -0.172457
     15 C                     0.110488
     16 H                     0.146667
     17 H                     0.156594
     18 H                     0.141306
     19 H                     0.181075
     20 H                     0.140298
     21 H                     0.130651
     22 H                     0.129490
     23 H                     0.129249
  ----------------------------------------
  Sum of atomic charges =     0.000000

                    Cartesian Multipole Moments
 -----------------------------------------------------------------
    Charge (ESU x 10^10)
                 0.0000
    Dipole Moment (Debye)
         X      -1.0020      Y      -1.2735      Z       0.1647
       Tot       1.6288
    Quadrupole Moments (Debye-Ang)
        XX     -86.2019     XY      -3.0697     YY     -83.7250
        XZ      -0.6498     YZ      -0.7190     ZZ     -93.9322

 Total job time:  41.13s(wall), 41.00s(cpu)
        *  Thank you very much for using Q-Chem.  Have a nice day.  *
