 Q-Chem 5.2, Q-Chem, Inc., Pleasanton, CA (2019)
 Q-Chem 5.2.1 for Intel X86 EM64T Linux

User input:
--------------------------------------------------------------
$molecule
0 1
C         2.14597880430000   -3.66720539840000   -0.06853168340000
C         0.97752537980000   -3.03516706100000   -0.06784528520000
C         0.72317828380000   -1.60184546050000   -0.01571671410000
C        -0.59339806670000   -1.15866034910000   -0.05078918250000
C        -0.94393287920000    0.18704268400000    0.00784188250000
C        -2.36195711250000    0.56587813200000    0.02552972900000
O        -2.79135381810000    1.70064379080000    0.13435750700000
O        -3.18911394550000   -0.48701323190000   -0.07756971170000
C        -4.57500311970000   -0.18724222340000   -0.05765945070000
C         0.06543739100000    1.17911055060000    0.08112295820000
N        -0.25180460140000    2.48788689460000    0.13298120050000
C         1.41752534380000    0.75679999230000    0.09464279490000
C         2.54042024190000    1.69822796340000    0.16113281900000
C         2.64701526340000    2.82888771390000   -0.52448012400000
C         1.69947337550000   -0.60012745890000    0.07021985540000
F         3.00501135040000   -0.94189086720000    0.11208602780000
H         2.18425160450000   -4.74276672910000   -0.11188606020000
H         3.09446659170000   -3.16437979990000   -0.02874087000000
H         0.06904614370000   -3.62431687000000   -0.11307945510000
H        -1.38626646280000   -1.88701440470000   -0.11553028290000
H        -5.09164397260000   -1.13709127260000   -0.16852490370000
H        -4.83071357060000    0.48737933880000   -0.87762797590000
H        -4.84819579800000    0.29027252470000    0.88592286990000
H        -1.23197530850000    2.71443344750000    0.24316175360000
H         0.45802628490000    3.14959392520000    0.39636863180000
H         3.35734649920000    1.38387746210000    0.79916972000000
H         1.90151849880000    3.14961367670000   -1.23309377480000
H         3.51842468530000    3.45477275590000   -0.43263827090000
$end

$rem
BASIS = 6-31G*
GUI = 2
METHOD = B3LYP
PRINT_ORBITALS false
MOLDEN_FORMAT false
--------------------------------------------------------------

             Standard Nuclear Orientation (Angstroms)
    I     Atom           X                Y                Z
 ----------------------------------------------------------------
    1      C       2.8374409465    -3.1849521400    -0.0623734700
    2      C       1.5691974586    -2.7896040262    -0.0662023832
    3      C       1.0435051724    -1.4322065701    -0.0119768343
    4      C      -0.3335784099    -1.2505677855    -0.0527759417
    5      C      -0.9368254643     0.0023164849     0.0072482724
    6      C      -2.4013166451     0.1011097845     0.0185331382
    7      O      -3.0415830981     1.1316571040     0.1278455707
    8      O      -3.0098818150    -1.0909376462    -0.0913281485
    9      C      -4.4276321950    -1.0635533424    -0.0778433758
   10      C      -0.1376120662     1.1698439541     0.0880855355
   11      N      -0.7010508936     2.3929217621     0.1414207119
   12      C       1.2704002643     1.0155952656     0.1075648875
   13      C       2.1907922037     2.1553002036     0.1820755068
   14      C       2.0809326832     3.2876112866    -0.5002891865
   15      C       1.8083466437    -0.2616168204     0.0813683121
   16      F       3.1550470326    -0.3458773078     0.1291452981
   17      H       3.0822045008    -4.2328918515    -0.1080872397
   18      H       3.6712265174    -2.5091241525    -0.0165027024
   19      H       0.7913113771    -3.5424242890    -0.1175156004
   20      H      -0.9711348166    -2.1176751051    -0.1233312992
   21      H      -4.7512864545    -2.0947004589    -0.1936262774
   22      H      -4.8046308382    -0.4480322463    -0.8975117675
   23      H      -4.7919561768    -0.6506804989     0.8654520293
   24      H      -1.7069943351     2.4262314763     0.2470898435
   25      H      -0.1330645219     3.1779873028     0.4100330700
   26      H       3.0500049232     2.0019245624     0.8235622564
   27      H       1.2909105945     3.4612244408    -1.2119685015
   28      H       2.8151579453     4.0691908259    -0.4024726204
 ----------------------------------------------------------------

    9    -769.5172751218      6.02e-06  Convergence criterion met
 Total energy in the final basis set =     -769.5172751218

                    Orbital Energies (a.u.)
 --------------------------------------------------------------

 Alpha MOs
 -- Occupied --
-24.7158 -19.1938 -19.1384 -14.3425 -10.3174 -10.2786 -10.2498 -10.2410
-10.2010 -10.2000 -10.1986 -10.1967 -10.1942 -10.1869 -10.1868 -10.1684
 -1.2271  -1.1120  -1.0200  -0.9380  -0.8605  -0.8089  -0.7883  -0.7554
 -0.7236  -0.7174  -0.6440  -0.6355  -0.6031  -0.5803  -0.5599  -0.5476
 -0.5326  -0.5162  -0.4965  -0.4878  -0.4810  -0.4694  -0.4595  -0.4573
 -0.4513  -0.4283  -0.4249  -0.4125  -0.4068  -0.3944  -0.3862  -0.3764
 -0.3614  -0.3568  -0.3367  -0.3331  -0.3057  -0.2982  -0.2793  -0.2670
 -0.2386  -0.1953

          Ground-State Mulliken Net Atomic Charges

     Atom                 Charge (a.u.)
  ----------------------------------------
      1 C                    -0.369111
      2 C                    -0.108304
      3 C                     0.136567
      4 C                    -0.290088
      5 C                     0.034208
      6 C                     0.620662
      7 O                    -0.536212
      8 O                    -0.462398
      9 C                    -0.214633
     10 C                     0.274274
     11 N                    -0.843031
     12 C                     0.025151
     13 C                    -0.125062
     14 C                    -0.359920
     15 C                     0.244373
     16 F                    -0.279219
     17 H                     0.134716
     18 H                     0.153796
     19 H                     0.125701
     20 H                     0.163041
     21 H                     0.164649
     22 H                     0.169513
     23 H                     0.168199
     24 H                     0.380350
     25 H                     0.330441
     26 H                     0.150215
     27 H                     0.163144
     28 H                     0.148979
  ----------------------------------------
  Sum of atomic charges =     0.000000

                    Cartesian Multipole Moments
 -----------------------------------------------------------------
    Charge (ESU x 10^10)
                 0.0000
    Dipole Moment (Debye)
         X      -1.2042      Y       0.4891      Z       0.3849
       Tot       1.3555
    Quadrupole Moments (Debye-Ang)
        XX     -86.0178     XY       8.5100     YY     -82.3575
        XZ       1.2575     YZ       1.2096     ZZ     -93.3836

 Total job time:  49.35s(wall), 49.20s(cpu)
        *  Thank you very much for using Q-Chem.  Have a nice day.  *
