 Q-Chem 5.2, Q-Chem, Inc., Pleasanton, CA (2019)
 Q-Chem 5.2.1 for Intel X86 EM64T Linux

User input:
--------------------------------------------------------------
$molecule
0 1
C         3.20603615360000    1.76326294130000   -1.26365931170000
C         2.00515233900000    1.26369881720000   -0.99332601580000
C         1.75481503320000    0.02370693090000   -0.28730099110000
C         2.73449189630000   -0.97102902570000   -0.01253685930000
C         2.23353913670000   -2.05552288980000    0.62099556060000
S         0.54376173740000   -1.92082351010000    0.91890390330000
C         0.50227107560000   -0.35858367380000    0.14947288610000
C        -0.72706424070000    0.38836706560000    0.12185288440000
S        -0.74714432820000    2.03345685240000    0.70240180400000
C        -2.45146358470000    2.12412449970000    0.50193786690000
C        -2.97293844020000    0.96665055510000    0.03179911220000
C        -1.99690742610000   -0.03931694450000   -0.20176939520000
C        -2.34943000070000   -1.32459634110000   -0.78384319110000
C        -1.58244869250000   -2.03649729310000   -1.59871437340000
H         3.31741711010000    2.68905324100000   -1.80074985460000
H         4.11708570770000    1.28018640960000   -0.95494068530000
H         1.12174142390000    1.80186633830000   -1.31116885840000
H         3.76715501160000   -0.87795207500000   -0.29415743860000
H         2.74961138040000   -2.94052733070000    0.93657009960000
H        -2.95989182840000    3.03603665860000    0.74459227200000
H        -4.01996841450000    0.82182984200000   -0.16798848990000
H        -3.35034159610000   -1.66529890190000   -0.54961123240000
H        -0.59858320370000   -1.70868067160000   -1.88971259650000
H        -1.91792309910000   -2.97167330980000   -2.01226077030000
$end

$rem
BASIS = 6-31G*
GUI = 2
METHOD = B3LYP
PRINT_ORBITALS false
MOLDEN_FORMAT false
--------------------------------------------------------------

             Standard Nuclear Orientation (Angstroms)
    I     Atom           X                Y                Z
 ----------------------------------------------------------------
    1      C      -2.6797270596    -2.5508532071    -1.0784062798
    2      C      -1.6382383753    -1.7545628070    -0.8639552121
    3      C      -1.6881857562    -0.4781036746    -0.1806709940
    4      C      -2.8793937387     0.2371356272     0.1262784988
    5      C      -2.6501574712     1.4262172869     0.7279258007
    6      S      -0.9723803271     1.7356350041     0.9550061689
    7      C      -0.5602089184     0.2214246030     0.1989503095
    8      C       0.8178822140    -0.1854039427     0.1260191322
    9      S       1.2829170437    -1.7583899970     0.7203407156
   10      C       2.9441288951    -1.4125776315     0.4484960304
   11      C       3.1317113231    -0.1695999973    -0.0540294313
   12      C       1.9214694563     0.5473450900    -0.2551904712
   13      C       1.9087090037     1.8682408527    -0.8635462484
   14      C       0.9534783480     2.3431493325    -1.6516291542
   15      H      -2.5698980888    -3.4846854605    -1.6017174370
   16      H      -3.6717362221    -2.3117456436    -0.7357303243
   17      H      -0.6590975306    -2.0541791840    -1.2140643824
   18      H      -3.8634557125    -0.1234163578    -0.1103454159
   19      H      -3.3639153361     2.1552129346     1.0569634379
   20      H       3.6790229745    -2.1584633809     0.6777325149
   21      H       4.0977114279     0.2350903693    -0.2994462128
   22      H       2.7965794670     2.4589853920    -0.6752013601
   23      H       0.0765562991     1.7681052908    -1.8975296899
   24      H       1.0208377305     3.3247067356    -2.0876631668
 ----------------------------------------------------------------

    9   -1259.6051898717      5.55e-06  Convergence criterion met
 Total energy in the final basis set =    -1259.6051898717

                    Orbital Energies (a.u.)
 --------------------------------------------------------------

 Alpha MOs
 -- Occupied --
-88.9085 -88.9030 -10.2221 -10.2203 -10.2128 -10.2110 -10.1978 -10.1964
-10.1908 -10.1908 -10.1887 -10.1875 -10.1784 -10.1776  -7.9698  -7.9644
 -5.9338  -5.9300  -5.9285  -5.9269  -5.9247  -5.9213  -0.9002  -0.8767
 -0.7948  -0.7888  -0.7645  -0.7228  -0.7166  -0.6964  -0.6137  -0.5977
 -0.5809  -0.5681  -0.5404  -0.5084  -0.4981  -0.4729  -0.4573  -0.4464
 -0.4207  -0.4153  -0.4046  -0.3992  -0.3890  -0.3768  -0.3704  -0.3631
 -0.3592  -0.3392  -0.3374  -0.3033  -0.2901  -0.2595  -0.2422  -0.2223
 -0.2000

          Ground-State Mulliken Net Atomic Charges

     Atom                 Charge (a.u.)
  ----------------------------------------
      1 C                    -0.354254
      2 C                    -0.109118
      3 C                     0.160906
      4 C                    -0.131936
      5 C                    -0.345384
      6 S                     0.272969
      7 C                    -0.249340
      8 C                    -0.246703
      9 S                     0.275116
     10 C                    -0.345431
     11 C                    -0.131069
     12 C                     0.165554
     13 C                    -0.127053
     14 C                    -0.329871
     15 H                     0.143908
     16 H                     0.139567
     17 H                     0.148281
     18 H                     0.140929
     19 H                     0.170545
     20 H                     0.172407
     21 H                     0.141408
     22 H                     0.131918
     23 H                     0.164024
     24 H                     0.142626
  ----------------------------------------
  Sum of atomic charges =     0.000000

                    Cartesian Multipole Moments
 -----------------------------------------------------------------
    Charge (ESU x 10^10)
                 0.0000
    Dipole Moment (Debye)
         X       0.2790      Y       0.2341      Z      -0.3816
       Tot       0.5275
    Quadrupole Moments (Debye-Ang)
        XX     -81.6502     XY      -2.0683     YY     -90.0839
        XZ      -0.0990     YZ       0.1982     ZZ     -98.6075

 Total job time:  43.89s(wall), 43.75s(cpu)
        *  Thank you very much for using Q-Chem.  Have a nice day.  *
