 Q-Chem 5.4, Q-Chem, Inc., Pleasanton, CA (2021)
 Q-Chem 5.4.2 for Intel X86 EM64T Linux

User input:
--------------------------------------------------------------
$molecule
0 1
C           -2.70134506910000       -3.00708807770000       -0.17428804090000
C           -3.03906226710000       -1.74625701020000        0.06755559630000
C           -2.13473828300000       -0.60404528390000        0.11880905120000
C           -2.66211385780000        0.68935960370000        0.12088816180000
C           -1.83257982720000        1.78823571550000        0.13172541770000
C           -0.44708455650000        1.64478008050000        0.16542511930000
O            0.27054783950000        2.80749794520000        0.16609733490000
C            1.43965349210000        2.91059619530000       -0.62445297520000
C            0.10414845420000        0.35326943080000        0.23187904240000
C            1.53963617580000        0.15768705780000        0.43273649600000
C            2.25935820760000       -0.86606550650000        0.00508349560000
F            1.84911205170000       -1.88230107610000       -0.74700835270000
F            3.55987733440000       -1.00988620800000        0.25915785940000
C           -0.75279818430000       -0.74290405960000        0.18957991040000
H           -3.44081676620000       -3.78883324840000       -0.20018815810000
H           -1.68658857780000       -3.31138000030000       -0.36519364970000
H           -4.08203965130000       -1.50073794170000        0.22648649310000
H           -3.73277254880000        0.82963713780000        0.09278410550000
H           -2.23485656050000        2.78912319360000        0.11207285210000
H            1.35621682600000        3.83785084990000       -1.19675770530000
H            1.54032793650000        2.07334899940000       -1.31664112820000
H            2.32924029820000        2.97207117490000        0.00788614260000
H            2.06672730090000        0.89685013640000        1.01627612830000
H           -0.32770364800000       -1.73068426880000        0.25836913530000
$end

$rem
BASIS = 6-31G*
GUI = 2
METHOD = B3LYP
PRINT_ORBITALS false
MOLDEN_FORMAT false
$end
--------------------------------------------------------------

             Standard Nuclear Orientation (Angstroms)
    I     Atom           X                Y                Z
 ----------------------------------------------------------------
    1      C       3.4955134539    -1.9839356098     0.1939961166
    2      C       3.3966246893    -0.6773221482    -0.0186503165
    3      C       2.1634096656     0.0978576001    -0.0765595203
    4      C       2.2273948050     1.4927995259    -0.0438723934
    5      C       1.0783177731     2.2511753242    -0.0600274671
    6      C      -0.1782592441     1.6537743302    -0.1337742398
    7      O      -1.2434888352     2.5094563451    -0.1357103069
    8      C      -2.3955758084     2.1969160559     0.6241720805
    9      C      -0.2639535210     0.2542867499    -0.2355814974
   10      C      -1.5467646541    -0.4049283005    -0.4785882760
   11      C      -1.8909122816    -1.6202921080    -0.0869131163
   12      F      -1.1796611911    -2.4587051820     0.6599899518
   13      F      -3.0628055934    -2.1843540179    -0.3786122819
   14      C       0.9094012856    -0.4931353553    -0.1871896257
   15      H       4.4532914440    -2.4739734131     0.2277450688
   16      H       2.6374507149    -2.6143557045     0.3523252119
   17      H       4.3002919176    -0.0936123306    -0.1451764254
   18      H       3.1885412072     1.9821188581     0.0156409823
   19      H       1.1219075148     3.3281789291    -0.0136409751
   20      H      -2.6390197444     3.0847347158     1.2130767017
   21      H      -2.2243473136     1.3578262382     1.3000801588
   22      H      -3.2413073133     1.9726884252    -0.0311574624
   23      H      -2.2788060108     0.1293372487    -1.0645758086
   24      H       0.8409323457    -1.5642373142    -0.2831044934
 ----------------------------------------------------------------

    9    -700.0276939541      4.11e-06  Convergence criterion met
 Total energy in the final basis set =     -700.0276939541

                    Orbital Energies (a.u.)
 --------------------------------------------------------------

 Alpha MOs
 -- Occupied --
-24.7430 -24.7358 -19.1753 -10.3574 -10.2489 -10.2404 -10.2063 -10.2049
-10.1908 -10.1887 -10.1886 -10.1877 -10.1843 -10.1760  -1.2849  -1.2248
 -1.0643  -0.8683  -0.8147  -0.7883  -0.7407  -0.7393  -0.6925  -0.6471
 -0.6236  -0.6028  -0.5784  -0.5562  -0.5365  -0.5213  -0.5182  -0.4889
 -0.4771  -0.4695  -0.4443  -0.4426  -0.4405  -0.4358  -0.4312  -0.4216
 -0.4077  -0.3914  -0.3793  -0.3583  -0.3479  -0.3466  -0.3174  -0.2904
 -0.2720  -0.2330  -0.2077

          Ground-State Mulliken Net Atomic Charges

     Atom                 Charge (a.u.)
  ----------------------------------------
      1 C                    -0.353157
      2 C                    -0.118347
      3 C                     0.182373
      4 C                    -0.200058
      5 C                    -0.168197
      6 C                     0.291060
      7 O                    -0.515639
      8 C                    -0.215787
      9 C                     0.148620
     10 C                    -0.322969
     11 C                     0.555503
     12 F                    -0.237147
     13 F                    -0.248700
     14 C                    -0.263368
     15 H                     0.142261
     16 H                     0.143676
     17 H                     0.126173
     18 H                     0.130229
     19 H                     0.137371
     20 H                     0.161680
     21 H                     0.163669
     22 H                     0.152099
     23 H                     0.172574
     24 H                     0.136081
  ----------------------------------------
  Sum of atomic charges =     0.000000

                    Cartesian Multipole Moments
 -----------------------------------------------------------------
    Charge (ESU x 10^10)
                 0.0000
    Dipole Moment (Debye)
         X      -0.5188      Y       0.6517      Z       0.5202
       Tot       0.9821
    Quadrupole Moments (Debye-Ang)
        XX     -72.1471     XY      -2.4260     YY     -79.1271
        XZ      -1.2807     YZ       2.1987     ZZ     -81.3677

 Total job time:  58.63s(wall), 56.29s(cpu)
        *  Thank you very much for using Q-Chem.  Have a nice day.  *
