 Q-Chem 5.2, Q-Chem, Inc., Pleasanton, CA (2019)
 Q-Chem 5.2.1 for Intel X86 EM64T Linux

User input:
--------------------------------------------------------------
$molecule
0 1
C        -7.12304944560000   -0.31565159770000   -0.23146909090000
C        -5.86282156780000   -0.71828270430000   -0.13196233870000
C        -4.68040581420000    0.13415476720000   -0.04986167010000
C        -4.72936750220000    1.53100298770000   -0.01040445520000
C        -3.54190773720000    2.23725903870000    0.06218269820000
C        -2.34509228140000    1.54436690610000    0.09112732410000
C        -2.38481537300000    0.14956019140000    0.05039900690000
C        -1.14424173170000   -0.64029890350000    0.07377118520000
C        -1.19193496970000   -2.03571168720000    0.09662466960000
C        -0.00001658860000   -2.73803793080000    0.11000890360000
C         1.19189313030000   -2.03571094920000    0.09586924630000
C         1.14418019150000   -0.64029775470000    0.07309510630000
C         2.38474159720000    0.14956878150000    0.04927031570000
C         2.34507976610000    1.54433382990000    0.09147007820000
C         3.54187009640000    2.23723560750000    0.06173304820000
C         4.72926116570000    1.53102667930000   -0.01240220520000
C         4.68027983660000    0.13419807020000   -0.05263917960000
C         5.86253882820000   -0.71831051340000   -0.13603922190000
C         7.12391864810000   -0.31592434610000   -0.22095893450000
N         3.52546747390000   -0.52538659170000   -0.01815553130000
N        -0.00003254320000    0.03393576930000    0.06590291180000
N        -3.52562067910000   -0.52545067780000   -0.01521339670000
H        -7.93248379150000   -1.02298967220000   -0.29078823560000
H        -7.40498244270000    0.72331529480000   -0.26059721120000
H        -5.62849185510000   -1.77407674540000   -0.11316940890000
H        -5.67415477700000    2.04968577760000   -0.03391176470000
H        -3.55099675420000    3.31787208610000    0.09517822120000
H        -1.39258112740000    2.04418055530000    0.14455179300000
H        -2.15125323210000   -2.52618810700000    0.10233023060000
H        -0.00001084170000   -3.81883272810000    0.12946087510000
H         2.15121484110000   -2.52618837290000    0.10098300240000
H         1.39263066530000    2.04411540190000    0.14628834000000
H         3.55099011960000    3.31783349760000    0.09522185970000
H         5.67396526860000    2.04979209080000   -0.03725711190000
H         5.62715567570000   -1.77402152310000   -0.12999253430000
H         7.40719592420000    0.72297950030000   -0.23539976850000
H         7.93306983780000   -1.02343966440000   -0.28197809730000
$end

$rem
BASIS = 6-31G*
GUI = 2
METHOD = B3LYP
PRINT_ORBITALS false
MOLDEN_FORMAT false
--------------------------------------------------------------

             Standard Nuclear Orientation (Angstroms)
    I     Atom           X                Y                Z
 ----------------------------------------------------------------
    1      C       7.1230712978     0.3226373392    -0.2275771732
    2      C       5.8628325522     0.7248248582    -0.1264277327
    3      C       4.6804148411    -0.1279681929    -0.0481363199
    4      C       4.7293814264    -1.5249745435    -0.0147507008
    5      C       3.5419196508    -2.2315462070     0.0546626525
    6      C       2.3450976303    -1.5387931554     0.0865184975
    7      C       2.3848159448    -0.1438222710     0.0518604780
    8      C       1.1442356407     0.6459208197     0.0785619380
    9      C       1.1919186729     2.0412212711     0.1074884348
   10      C      -0.0000050010     2.7434760495     0.1238254854
   11      C      -1.1919093539     2.0412106001     0.1065295578
   12      C      -1.1441862164     0.6459099217     0.0776905457
   13      C      -2.3847409116    -0.1438523999     0.0503246826
   14      C      -2.3450744295    -1.5387875781     0.0864610901
   15      C      -3.5418581187    -2.2315601010     0.0536085145
   16      C      -4.7292470363    -1.5250419956    -0.0175558206
   17      C      -4.6802705382    -0.1280513216    -0.0517129177
   18      C      -5.8625274532     0.7248053799    -0.1315052055
   19      C      -7.1238976421     0.3227853708    -0.2182818962
   20      N      -3.5254650244     0.5313835233    -0.0142622597
   21      N       0.0000311167    -0.0282795987     0.0676635898
   22      N       3.5256228514     0.5314739118    -0.0107180701
   23      H       7.9325065173     1.0302312123    -0.2837502014
   24      H       7.4050129261    -0.7161914740    -0.2611998003
   25      H       5.6284949905     1.7805258763    -0.1030629480
   26      H       5.6741737722    -2.0435449466    -0.0404330913
   27      H       3.5510122457    -3.3122924925     0.0829586596
   28      H       1.3925848785    -2.0388397214     0.1376872934
   29      H       2.1512335431     2.5316735558     0.1154090792
   30      H      -0.0000188020     3.8241760203     0.1479780423
   31      H      -2.1512343994     2.5316558234     0.1136946530
   32      H      -1.3926270526    -2.0387975660     0.1391863920
   33      H      -3.5509746061    -3.3122934759     0.0823963172
   34      H      -5.6739459458    -2.0436996358    -0.0447474213
   35      H      -5.6271510634     1.7804814101    -0.1208468140
   36      H      -7.4071675385    -0.7160474114    -0.2372653419
   37      H      -7.9330478083     1.0305549048    -0.2762923003
 ----------------------------------------------------------------

    8    -897.2880066794      7.16e-06  Convergence criterion met
 Total energy in the final basis set =     -897.2880066794

                    Orbital Energies (a.u.)
 --------------------------------------------------------------

 Alpha MOs
 -- Occupied --
-14.3247 -14.3231 -14.3231 -10.2262 -10.2262 -10.2225 -10.2225 -10.2218
-10.2218 -10.2037 -10.2036 -10.1994 -10.1952 -10.1952 -10.1894 -10.1894
-10.1884 -10.1884 -10.1874 -10.1873 -10.1850 -10.1850  -0.9625  -0.9515
 -0.9376  -0.8171  -0.8077  -0.8042  -0.8018  -0.7973  -0.7708  -0.7401
 -0.7229  -0.6632  -0.6540  -0.6453  -0.6322  -0.6128  -0.5954  -0.5664
 -0.5638  -0.5246  -0.5130  -0.4989  -0.4984  -0.4905  -0.4728  -0.4664
 -0.4569  -0.4509  -0.4362  -0.4276  -0.4254  -0.4195  -0.4116  -0.4110
 -0.4076  -0.3983  -0.3873  -0.3802  -0.3715  -0.3607  -0.3571  -0.3501
 -0.3199  -0.3076  -0.2966  -0.2899  -0.2776  -0.2695  -0.2543  -0.2522
 -0.2453  -0.2305  -0.2187

          Ground-State Mulliken Net Atomic Charges

     Atom                 Charge (a.u.)
  ----------------------------------------
      1 C                    -0.347365
      2 C                    -0.093674
      3 C                     0.317289
      4 C                    -0.176104
      5 C                    -0.100691
      6 C                    -0.154356
      7 C                     0.262084
      8 C                     0.270678
      9 C                    -0.152778
     10 C                    -0.099086
     11 C                    -0.152778
     12 C                     0.270675
     13 C                     0.262093
     14 C                    -0.154354
     15 C                    -0.100692
     16 C                    -0.176103
     17 C                     0.317359
     18 C                    -0.093643
     19 C                    -0.347426
     20 N                    -0.583529
     21 N                    -0.596898
     22 N                    -0.583484
     23 H                     0.149429
     24 H                     0.143071
     25 H                     0.142216
     26 H                     0.134998
     27 H                     0.139773
     28 H                     0.163119
     29 H                     0.163414
     30 H                     0.140756
     31 H                     0.163411
     32 H                     0.163116
     33 H                     0.139774
     34 H                     0.134986
     35 H                     0.142216
     36 H                     0.143073
     37 H                     0.149433
  ----------------------------------------
  Sum of atomic charges =     0.000001

                    Cartesian Multipole Moments
 -----------------------------------------------------------------
    Charge (ESU x 10^10)
                 0.0000
    Dipole Moment (Debye)
         X      -0.0000      Y      -1.6789      Z       0.0887
       Tot       1.6812
    Quadrupole Moments (Debye-Ang)
        XX    -104.2110     XY       0.0027     YY    -109.5435
        XZ      -0.0210     YZ       0.0289     ZZ    -131.3366

 Total job time:  76.27s(wall), 75.90s(cpu)
        *  Thank you very much for using Q-Chem.  Have a nice day.  *
