 Q-Chem 5.2, Q-Chem, Inc., Pleasanton, CA (2019)
 Q-Chem 5.2.1 for Intel X86 EM64T Linux

User input:
--------------------------------------------------------------
$molecule
0 1
C         5.62791410370000    4.05926830310000    0.89387067750000
C         4.30455995250000    4.19631258580000    0.85471833110000
C         3.39424765350000    3.29032233030000    0.20775705730000
C         3.63952637310000    2.12646737340000   -0.47380905170000
C         2.48707970350000    1.50319285500000   -0.98762964050000
C         2.56073765440000    0.20157216350000   -1.72370261840000
C         2.61015755580000   -0.99030666520000   -0.75645455130000
C         1.30597068740000   -1.16712822800000    0.01515682450000
C         1.35516719040000   -2.36971834410000    0.95448979010000
C         0.10599568350000   -2.49909631860000    1.82692844130000
C        -1.16322736930000   -2.78348399270000    1.02638952750000
C        -2.36459602530000   -3.02718677300000    1.93705108910000
C        -3.63774682480000   -3.38664523640000    1.16968035420000
C        -4.17420863270000   -2.23289657780000    0.32337217950000
C        -5.56131573670000   -2.50772325240000   -0.25826055960000
C        -5.57054170140000   -3.61957202080000   -1.30536690940000
C        -6.94578961470000   -3.77933510590000   -1.94222832590000
C         1.33285973820000    2.19820474220000   -0.69019221110000
C        -0.02130589180000    1.87293433300000   -1.04376763230000
C        -1.09731815950000    2.54304650190000   -0.63947121420000
S         1.69150965710000    3.63389139760000    0.22753135020000
H         6.24975740840000    4.77878249190000    1.39628933460000
H         6.13257261640000    3.23059416260000    0.42833362120000
H         3.83760696690000    5.04674478120000    1.33475125270000
H         4.62706301070000    1.72278667340000   -0.61050683980000
H         3.46834244530000    0.19832275920000   -2.33209883330000
H         1.70748391760000    0.08821269440000   -2.39388208030000
H         3.43333070980000   -0.84559967270000   -0.05285962620000
H         2.81554258810000   -1.89824110180000   -1.32869316140000
H         0.49036408850000   -1.29634183440000   -0.69810459420000
H         1.10220980890000   -0.26587014730000    0.59722781590000
H         2.22775302740000   -2.27248390580000    1.60555285740000
H         1.48221660080000   -3.28310912920000    0.36790181380000
H        -0.02904135360000   -1.57856320590000    2.39978958920000
H         0.26213707100000   -3.31168964850000    2.54127234600000
H        -1.00375738310000   -3.66371719960000    0.39853462990000
H        -1.37493031810000   -1.93654531210000    0.37425257840000
H        -2.54566559340000   -2.13444202250000    2.54061204080000
H        -2.12675653340000   -3.84472203390000    2.62278626110000
H        -4.40732166650000   -3.67859880450000    1.88886347040000
H        -3.43427320480000   -4.24913226340000    0.53250765910000
H        -3.48447066640000   -2.02323054260000   -0.49613979290000
H        -4.22895434390000   -1.33811777930000    0.94881410960000
H        -5.93331519060000   -1.59016631740000   -0.72182866390000
H        -6.24819924970000   -2.76867610130000    0.55054173120000
H        -5.28029287840000   -4.56400999340000   -0.84243914070000
H        -4.83674329570000   -3.38851451210000   -2.08128942660000
H        -7.68959945190000   -4.02200657270000   -1.18623557940000
H        -6.93623055870000   -4.57652756550000   -2.68213473310000
H        -7.24866312040000   -2.85768073560000   -2.43493858880000
H        -0.13654679350000    1.00917916040000   -1.68459144160000
H        -1.01601983080000    3.40284258930000    0.00495382940000
H        -2.08897863900000    2.25260581580000   -0.93793956020000
$end

$rem
BASIS = 6-31G*
GUI = 2
METHOD = B3LYP
PRINT_ORBITALS false
MOLDEN_FORMAT false
--------------------------------------------------------------

             Standard Nuclear Orientation (Angstroms)
    I     Atom           X                Y                Z
 ----------------------------------------------------------------
    1      C       7.1050445961    -0.3875458431     0.6070304109
    2      C       6.1345196670     0.4675392501     0.9208633227
    3      C       4.8446969812     0.5291311367     0.2879260483
    4      C       4.3168481010    -0.2347590304    -0.7205875828
    5      C       3.0092001578     0.1258767482    -1.0955739038
    6      C       2.2599802098    -0.6258372930    -2.1515288350
    7      C       1.6031112517    -1.8920397682    -1.5824587549
    8      C       0.4792467450    -1.5730132023    -0.6012839545
    9      C      -0.1850270330    -2.8371089314    -0.0611061699
   10      C      -1.2337307898    -2.5493886758     1.0139542000
   11      C      -2.4366200459    -1.7672179902     0.4905685718
   12      C      -3.5155289404    -1.6054394842     1.5591028411
   13      C      -4.7661265927    -0.8891500329     1.0473254246
   14      C      -4.5164945666     0.5769760319     0.6961517090
   15      C      -5.8015437831     1.3536711107     0.4075590410
   16      C      -6.5100010806     0.9016739078    -0.8677884787
   17      C      -7.7173985766     1.7776618611    -1.1796537098
   18      C       2.5200297742     1.1836543174    -0.3569581540
   19      C       1.2366771549     1.8225150190    -0.4541385513
   20      C       0.7974603658     2.7797333339     0.3589604726
   21      S       3.6990798601     1.7294049358     0.8023690773
   22      H       8.0486778722    -0.3759641632     1.1230113945
   23      H       6.9922036916    -1.1226764961    -0.1707585384
   24      H       6.2909097515     1.1927224231     1.7091292186
   25      H       4.8541500425    -1.0390347638    -1.1910343615
   26      H       2.9637111233    -0.9168088084    -2.9351112161
   27      H       1.4949516743     0.0055276342    -2.6055580062
   28      H       2.3640869020    -2.4951244772    -1.0816545343
   29      H       1.2014230321    -2.4812701470    -2.4103712589
   30      H      -0.2665843850    -0.9590911674    -1.1087165039
   31      H       0.8784440885    -0.9932086401     0.2336168858
   32      H       0.5851041181    -3.4844839141     0.3661494193
   33      H      -0.6527016771    -3.3815691372    -0.8853350486
   34      H      -0.7684473007    -1.9902077593     1.8291928676
   35      H      -1.5827271862    -3.5006500297     1.4241719699
   36      H      -2.8595236126    -2.2901686059    -0.3708942389
   37      H      -2.1093629439    -0.7815267614     0.1608392006
   38      H      -3.1028708356    -1.0523679276     2.4063869389
   39      H      -3.8033011557    -2.5957423775     1.9219410756
   40      H      -5.5359223583    -0.9358540908     1.8218832907
   41      H      -5.1435331192    -1.4200352090     0.1715402496
   42      H      -3.8626893184     0.6425779317    -0.1753603503
   43      H      -4.0015571767     1.0532386225     1.5344936609
   44      H      -5.5540050519     2.4141240936     0.3108442147
   45      H      -6.4844229697     1.2519237145     1.2545478127
   46      H      -6.8388538713    -0.1330507208    -0.7595740274
   47      H      -5.8070430402     0.9430858574    -1.7032754440
   48      H      -8.4358809316     1.7402825994    -0.3635327361
   49      H      -8.2122088937     1.4406630657    -2.0877634205
   50      H      -7.4131742401     2.8130462205    -1.3188274265
   51      H       0.6049274559     1.4698429247    -1.2582052960
   52      H       1.3999128425     3.1470931724     1.1733560334
   53      H      -0.1750318635     3.2226331712     0.2367792533
 ----------------------------------------------------------------

    9   -1179.5626960682      2.94e-06  Convergence criterion met
 Total energy in the final basis set =    -1179.5626960682

                    Orbital Energies (a.u.)
 --------------------------------------------------------------

 Alpha MOs
 -- Occupied --
-88.8990 -10.2164 -10.2119 -10.1979 -10.1947 -10.1929 -10.1875 -10.1838
-10.1823 -10.1790 -10.1781 -10.1719 -10.1706 -10.1700 -10.1700 -10.1694
-10.1692 -10.1691 -10.1690 -10.1684 -10.1658  -7.9610  -5.9249  -5.9215
 -5.9178  -0.8890  -0.8171  -0.8095  -0.8013  -0.7884  -0.7722  -0.7615
 -0.7371  -0.7143  -0.7005  -0.6816  -0.6482  -0.6236  -0.6165  -0.5971
 -0.5820  -0.5742  -0.5635  -0.5528  -0.5359  -0.5243  -0.4901  -0.4728
 -0.4681  -0.4600  -0.4569  -0.4522  -0.4444  -0.4355  -0.4264  -0.4219
 -0.4163  -0.4120  -0.4033  -0.3973  -0.3876  -0.3853  -0.3780  -0.3753
 -0.3657  -0.3619  -0.3582  -0.3554  -0.3497  -0.3449  -0.3362  -0.3327
 -0.3259  -0.3222  -0.3211  -0.3193  -0.3140  -0.3127  -0.3054  -0.3007
 -0.2923  -0.2676  -0.2435  -0.1952

          Ground-State Mulliken Net Atomic Charges

     Atom                 Charge (a.u.)
  ----------------------------------------
      1 C                    -0.341327
      2 C                    -0.088366
      3 C                    -0.126552
      4 C                    -0.160648
      5 C                     0.158303
      6 C                    -0.348492
      7 C                    -0.250866
      8 C                    -0.262377
      9 C                    -0.255019
     10 C                    -0.254038
     11 C                    -0.259641
     12 C                    -0.254674
     13 C                    -0.255813
     14 C                    -0.254889
     15 C                    -0.247798
     16 C                    -0.251147
     17 C                    -0.440453
     18 C                    -0.211014
     19 C                    -0.049593
     20 C                    -0.379910
     21 S                     0.230168
     22 H                     0.146867
     23 H                     0.142424
     24 H                     0.137488
     25 H                     0.131983
     26 H                     0.143890
     27 H                     0.143244
     28 H                     0.136356
     29 H                     0.131019
     30 H                     0.129235
     31 H                     0.151206
     32 H                     0.126795
     33 H                     0.124409
     34 H                     0.130511
     35 H                     0.124910
     36 H                     0.123227
     37 H                     0.142398
     38 H                     0.127675
     39 H                     0.124640
     40 H                     0.124571
     41 H                     0.131431
     42 H                     0.130199
     43 H                     0.125501
     44 H                     0.123952
     45 H                     0.126260
     46 H                     0.136917
     47 H                     0.127852
     48 H                     0.141760
     49 H                     0.140071
     50 H                     0.141000
     51 H                     0.136891
     52 H                     0.155333
     53 H                     0.144134
  ----------------------------------------
  Sum of atomic charges =     0.000000

                    Cartesian Multipole Moments
 -----------------------------------------------------------------
    Charge (ESU x 10^10)
                -0.0000
    Dipole Moment (Debye)
         X      -0.0903      Y      -0.8989      Z      -0.6325
       Tot       1.1028
    Quadrupole Moments (Debye-Ang)
        XX    -136.2092     XY      -4.3823     YY    -140.4589
        XZ       0.6455     YZ       3.6500     ZZ    -138.0666

 Total job time:  117.08s(wall), 116.72s(cpu)
        *  Thank you very much for using Q-Chem.  Have a nice day.  *
