 Q-Chem 5.2, Q-Chem, Inc., Pleasanton, CA (2019)
 Q-Chem 5.2.1 for Intel X86 EM64T Linux

User input:
--------------------------------------------------------------
$molecule
0 1
C        -4.19135399210000    2.55257915410000   -1.00151894260000
C        -4.23762543660000    1.45259515270000    0.05826919250000
C        -5.41666394020000    0.51209609200000   -0.19377086030000
O        -3.08077527690000    0.59000287310000   -0.06007300230000
C        -1.84632071280000    1.07507636960000    0.11316938830000
N        -0.92474046210000    0.05706269400000   -0.00714601210000
C         0.45720813660000    0.30628890570000   -0.07153600170000
C         1.34429735940000   -0.63624937390000    0.44863502000000
C         2.70610319620000   -0.43340655330000    0.38756032580000
C         3.22954968230000    0.72417139830000   -0.19267086770000
C         4.65105235920000    1.00598060150000   -0.28789567200000
C         5.67007767130000    0.26048789880000    0.11424427790000
F         5.63403529620000   -0.93081839930000    0.70197488650000
F         6.94340282670000    0.62890399500000   -0.02991448290000
C         2.33263169720000    1.66236119100000   -0.70917328990000
C         0.96992793500000    1.46088086510000   -0.65780846120000
C        -1.36111674500000   -1.29453689970000   -0.06522348850000
C        -0.99677295200000   -2.08218001740000   -1.15028544420000
C        -1.41026148250000   -3.40028023690000   -1.21448157970000
C        -2.18935892370000   -3.93626596700000   -0.20283953220000
C        -2.54808756740000   -3.15163394160000    0.88058171540000
C        -2.13182484220000   -1.83522860480000    0.95637588480000
O        -1.55670724470000    2.22406148200000    0.33573372720000
C        -4.31519710300000    2.04651162990000    1.46420532280000
H        -4.08127515250000    2.11251246100000   -1.99050889960000
H        -3.35338430630000    3.21881369530000   -0.81637617680000
H        -5.11274739590000    3.12724162040000   -0.97186087790000
H        -5.33451567200000    0.07045830810000   -1.18331161020000
H        -6.35142190540000    1.06004153640000   -0.12359990870000
H        -5.41644256980000   -0.29001867020000    0.53960624480000
H         0.95827762250000   -1.53396889620000    0.90788368810000
H         3.36135195260000   -1.18086035910000    0.80329738920000
H         4.92545028750000    1.94568530000000   -0.74544853690000
H         2.71383188170000    2.56333783620000   -1.16672798070000
H         0.30173388960000    2.20196326080000   -1.06299449580000
H        -0.38926770780000   -1.65634471440000   -1.93523045180000
H        -1.12696724720000   -4.00871660590000   -2.06028009520000
H        -2.51419369070000   -4.96435076340000   -0.25709049260000
H        -3.14856165850000   -3.56906583450000    1.67519538970000
H        -2.40017423670000   -1.22224914750000    1.80335544120000
H        -5.22768235690000    2.62718889330000    1.56518041290000
H        -3.46257527500000    2.69478171210000    1.64704558960000
H        -4.32035433620000    1.25154684100000    2.20720162950000
$end

$rem
BASIS = 6-31G*
GUI = 2
METHOD = B3LYP
PRINT_ORBITALS false
MOLDEN_FORMAT false
--------------------------------------------------------------

             Standard Nuclear Orientation (Angstroms)
    I     Atom           X                Y                Z
 ----------------------------------------------------------------
    1      C      -4.0562161730    -2.5121328826     1.0047529274
    2      C      -4.0985662059    -1.4086584973    -0.0515649683
    3      C      -5.2696500903    -0.4602844067     0.2079414564
    4      O      -2.9349427183    -0.5549481882     0.0647608468
    5      C      -1.7047830230    -1.0485550111    -0.1148128767
    6      N      -0.7752697931    -0.0377056554     0.0048806200
    7      C       0.6050503467    -0.2972704120     0.0630540989
    8      C       1.4969954594     0.6402842444    -0.4578189873
    9      C       2.8575017966     0.4272593659    -0.4027429234
   10      C       3.3746974479    -0.7358715949     0.1719623942
   11      C       4.7944519822    -1.0284015829     0.2607166559
   12      C       5.8173435375    -0.2892103328    -0.1432358880
   13      F       5.7877536723     0.9040895977    -0.7272707609
   14      F       7.0884811590    -0.6674029233    -0.0052191089
   15      C       2.4729414633    -1.6689946660     0.6892188005
   16      C       1.1115654534    -1.4573548245     0.6438519843
   17      C      -1.2014562272     1.3168827733     0.0687087286
   18      C      -0.8270550799     2.0985632715     1.1546585008
   19      C      -1.2305769658     3.4194668409     1.2244148282
   20      C      -2.0096880568     3.9641999397     0.2174665093
   21      C      -2.3784456302     3.1854842547    -0.8668558546
   22      C      -1.9721828593     1.8662899899    -0.9482160177
   23      O      -1.4245112521    -2.1989627574    -0.3419414439
   24      C      -4.1860435933    -1.9977609546    -1.4589442879
   25      H      -3.9390072286    -2.0758610938     1.9946045173
   26      H      -3.2239075126    -3.1839463885     0.8143102609
   27      H      -4.9819230165    -3.0799188312     0.9770344866
   28      H      -5.1803570138    -0.0222380321     1.1984591423
   29      H      -6.2086840115    -1.0011342310     0.1398430829
   30      H      -5.2664150840     0.3440075538    -0.5230401412
   31      H       1.1157861306     1.5421917164    -0.9128610476
   32      H       3.5165903391     1.1711251102    -0.8188456488
   33      H       5.0637277586    -1.9714677505     0.7143801076
   34      H       2.8493007670    -2.5741186590     1.1425763003
   35      H       0.4395373966    -2.1947225430     1.0494740507
   36      H      -0.2196126233     1.6659190968     1.9359200907
   37      H      -0.9394837304     4.0232607733     2.0708917524
   38      H      -2.3267325488     4.9944757919     0.2760634334
   39      H      -2.9789571011     3.6097026859    -1.6578388548
   40      H      -2.2483698575     1.2578468654    -1.7959466871
   41      H      -5.1031677779    -2.5714126205    -1.5580320663
   42      H      -3.3389420383    -2.6517251334    -1.6470890525
   43      H      -4.1882775074    -1.2005503171    -2.1995449452
 ----------------------------------------------------------------

    9   -1140.3440961215      5.72e-06  Convergence criterion met
 Total energy in the final basis set =    -1140.3440961215

                    Orbital Energies (a.u.)
 --------------------------------------------------------------

 Alpha MOs
 -- Occupied --
-24.7398 -24.7291 -19.1837 -19.1217 -14.3780 -10.3508 -10.3355 -10.2550
-10.2303 -10.2290 -10.1994 -10.1985 -10.1934 -10.1930 -10.1926 -10.1922
-10.1910 -10.1868 -10.1860 -10.1852 -10.1827 -10.1768 -10.1715 -10.1704
 -1.2802  -1.2194  -1.1124  -1.0203  -0.9687  -0.8661  -0.8549  -0.8158
 -0.7984  -0.7564  -0.7559  -0.7485  -0.7305  -0.6969  -0.6937  -0.6662
 -0.6371  -0.6250  -0.6164  -0.6098  -0.5908  -0.5670  -0.5567  -0.5387
 -0.5249  -0.5140  -0.5092  -0.4952  -0.4862  -0.4738  -0.4655  -0.4592
 -0.4523  -0.4497  -0.4421  -0.4380  -0.4363  -0.4355  -0.4286  -0.4245
 -0.4166  -0.4136  -0.4074  -0.3963  -0.3910  -0.3789  -0.3770  -0.3750
 -0.3688  -0.3630  -0.3567  -0.3564  -0.3497  -0.3454  -0.3331  -0.3179
 -0.2938  -0.2830  -0.2692  -0.2587  -0.2496  -0.2437  -0.1992

          Ground-State Mulliken Net Atomic Charges

     Atom                 Charge (a.u.)
  ----------------------------------------
      1 C                    -0.467971
      2 C                     0.308223
      3 C                    -0.449257
      4 O                    -0.509239
      5 C                     0.797854
      6 N                    -0.650575
      7 C                     0.313628
      8 C                    -0.169931
      9 C                    -0.207221
     10 C                     0.203571
     11 C                    -0.298894
     12 C                     0.539250
     13 F                    -0.237176
     14 F                    -0.250993
     15 C                    -0.214346
     16 C                    -0.145122
     17 C                     0.261479
     18 C                    -0.132273
     19 C                    -0.142421
     20 C                    -0.119737
     21 C                    -0.146801
     22 C                    -0.123756
     23 O                    -0.511932
     24 C                    -0.469872
     25 H                     0.146633
     26 H                     0.187671
     27 H                     0.142978
     28 H                     0.156351
     29 H                     0.146638
     30 H                     0.153234
     31 H                     0.148514
     32 H                     0.139428
     33 H                     0.158285
     34 H                     0.129644
     35 H                     0.157909
     36 H                     0.144552
     37 H                     0.134228
     38 H                     0.130256
     39 H                     0.132540
     40 H                     0.136939
     41 H                     0.144628
     42 H                     0.190089
     43 H                     0.142997
  ----------------------------------------
  Sum of atomic charges =     0.000000

                    Cartesian Multipole Moments
 -----------------------------------------------------------------
    Charge (ESU x 10^10)
                 0.0000
    Dipole Moment (Debye)
         X      -2.6017      Y       1.3916      Z       0.7049
       Tot       3.0335
    Quadrupole Moments (Debye-Ang)
        XX    -134.2911     XY      -2.7138     YY    -132.0441
        XZ       4.1606     YZ      -3.1538     ZZ    -134.2533

 Total job time:  134.32s(wall), 133.96s(cpu)
        *  Thank you very much for using Q-Chem.  Have a nice day.  *
