 Q-Chem 5.2, Q-Chem, Inc., Pleasanton, CA (2019)
 Q-Chem 5.2.1 for Intel X86 EM64T Linux

User input:
--------------------------------------------------------------
$molecule
0 1
C         6.94243854150000    0.38167216090000    0.83581289270000
C         6.16624088540000   -0.01042307930000   -0.16869154010000
C         4.71197588420000   -0.05315560820000   -0.18339857030000
C         4.05751143500000   -0.49144526750000   -1.33761050570000
C         2.68343660930000   -0.54986026770000   -1.39953489570000
C         1.89061360150000   -0.16600800080000   -0.31235736120000
C         0.45017399930000   -0.24102510170000   -0.43547978580000
C        -0.45014352720000    0.22848928150000    0.44289275090000
C        -1.89058317390000    0.16077896570000    0.31537682100000
C        -2.54632194850000   -0.56114152480000   -0.68793127080000
C        -3.92035512140000   -0.59087260370000   -0.76388926310000
C        -4.71215869540000    0.09993907690000    0.15740178090000
C        -6.16661745590000    0.10130541490000    0.11843654460000
C        -6.94172277040000   -0.54941938150000   -0.74238013930000
C        -4.05917020310000    0.81899736220000    1.16197343210000
C        -2.68499647030000    0.84548118780000    1.24164697900000
C         2.54781149590000    0.26715045100000    0.84445036520000
C         3.92182363220000    0.32128700000000    0.90676090590000
H         8.01534605130000    0.37744931600000    0.74761329690000
H         6.55042824370000    0.72051743360000    1.77931568850000
H         6.63282231340000   -0.33846950730000   -1.09028783720000
H         4.64369862820000   -0.79068588490000   -2.19566865800000
H         2.20431049920000   -0.89295977890000   -2.30621946900000
H         0.10529153500000   -0.70965053140000   -1.34808816590000
H        -0.10535850680000    0.73178915830000    1.33690357530000
H        -1.97098568270000   -1.11494562870000   -1.41410830800000
H        -4.38908430500000   -1.16019578320000   -1.55187892910000
H        -6.63432702480000    0.70489410490000    0.88758378020000
H        -6.54850536350000   -1.16952108900000   -1.52950608620000
H        -8.01491445250000   -0.48442392230000   -0.68787913040000
H        -4.64661757750000    1.36151053680000    1.88999088710000
H        -2.20711303480000    1.41004556220000    2.03047719220000
H         1.97364607510000    0.55655226390000    1.71143797530000
H         4.39187838320000    0.65806989810000    1.81802234210000
$end

$rem
BASIS = 6-31G*
GUI = 2
METHOD = B3LYP
PRINT_ORBITALS false
MOLDEN_FORMAT false
--------------------------------------------------------------

             Standard Nuclear Orientation (Angstroms)
    I     Atom           X                Y                Z
 ----------------------------------------------------------------
    1      C       6.9475744856    -0.8750563550    -0.0841098424
    2      C       6.1654204756     0.1906785106     0.0489124684
    3      C       4.7108800460     0.2151016050     0.0235213176
    4      C       4.0496397628     1.4353043587     0.1862888220
    5      C       2.6750232753     1.5092248677     0.1691470741
    6      C       1.8884420075     0.3651195265    -0.0045732568
    7      C       0.4471424388     0.5004043784    -0.0071240197
    8      C      -0.4471608475    -0.5009818566    -0.0061451227
    9      C      -1.8884319820    -0.3652862130    -0.0001798748
   10      C      -2.5521224598     0.8562630696    -0.1586789664
   11      C      -3.9265739738     0.9289656844    -0.1439114588
   12      C      -4.7108724331    -0.2143346579     0.0312773523
   13      C      -6.1654266416    -0.1894224077     0.0562148087
   14      C      -6.9475387635     0.8721934913    -0.1066000690
   15      C      -4.0499449656    -1.4356584844     0.1866671357
   16      C      -2.6753592298    -1.5100957124     0.1672797949
   17      C       2.5523939135    -0.8549240253    -0.1730993114
   18      C       3.9269231974    -0.9271595815    -0.1599087047
   19      H       8.0201136085    -0.7889054012    -0.0499723454
   20      H       6.5610083604    -1.8688884308    -0.2309095492
   21      H       6.6266998101     1.1605518394     0.1945816975
   22      H       4.6309241180     2.3362955183     0.3268149547
   23      H       2.1905808245     2.4673925176     0.2979348293
   24      H       0.0961591752     1.5240237827     0.0134144060
   25      H      -0.0961318044    -1.5246359368     0.0126635297
   26      H      -1.9827569113     1.7615379337    -0.3047754632
   27      H      -4.4015636262     1.8897433989    -0.2706184342
   28      H      -6.6267126948    -1.1554664702     0.2254278812
   29      H      -6.5609074610     1.8614422410    -0.2815756673
   30      H      -8.0201149898     0.7869529271    -0.0712526325
   31      H      -4.6314830752    -2.3372821557     0.3219910413
   32      H      -2.1912413464    -2.4693057850     0.2893638956
   33      H       1.9831034913    -1.7590502350    -0.3265628833
   34      H       4.4022726866    -1.8864229359    -0.2963941421
 ----------------------------------------------------------------

    8    -695.5081097369      6.76e-06  Convergence criterion met
 Total energy in the final basis set =     -695.5081097369

                    Orbital Energies (a.u.)
 --------------------------------------------------------------

 Alpha MOs
 -- Occupied --
-10.1959 -10.1959 -10.1942 -10.1942 -10.1903 -10.1898 -10.1898 -10.1894
-10.1877 -10.1877 -10.1870 -10.1870 -10.1870 -10.1870 -10.1864 -10.1864
-10.1795 -10.1795  -0.8695  -0.8646  -0.8169  -0.7971  -0.7685  -0.7501
 -0.7493  -0.7371  -0.7028  -0.6453  -0.6213  -0.6153  -0.6075  -0.5633
 -0.5610  -0.5569  -0.5168  -0.5017  -0.4842  -0.4675  -0.4579  -0.4566
 -0.4438  -0.4306  -0.4254  -0.4231  -0.4198  -0.4066  -0.3865  -0.3815
 -0.3783  -0.3756  -0.3626  -0.3489  -0.3424  -0.3385  -0.3324  -0.3292
 -0.3067  -0.2685  -0.2542  -0.2540  -0.2322  -0.1927

          Ground-State Mulliken Net Atomic Charges

     Atom                 Charge (a.u.)
  ----------------------------------------
      1 C                    -0.353565
      2 C                    -0.113590
      3 C                     0.180901
      4 C                    -0.200188
      5 C                    -0.198748
      6 C                     0.191047
      7 C                    -0.191005
      8 C                    -0.190948
      9 C                     0.191022
     10 C                    -0.182065
     11 C                    -0.186094
     12 C                     0.180830
     13 C                    -0.113615
     14 C                    -0.353528
     15 C                    -0.200166
     16 C                    -0.198796
     17 C                    -0.182085
     18 C                    -0.186120
     19 H                     0.144472
     20 H                     0.142634
     21 H                     0.126518
     22 H                     0.128124
     23 H                     0.126639
     24 H                     0.128148
     25 H                     0.128100
     26 H                     0.129575
     27 H                     0.127251
     28 H                     0.126549
     29 H                     0.142651
     30 H                     0.144468
     31 H                     0.128115
     32 H                     0.126638
     33 H                     0.129576
     34 H                     0.127255
  ----------------------------------------
  Sum of atomic charges =     0.000000

                    Cartesian Multipole Moments
 -----------------------------------------------------------------
    Charge (ESU x 10^10)
                 0.0000
    Dipole Moment (Debye)
         X      -0.0005      Y       0.0004      Z       0.0157
       Tot       0.0157
    Quadrupole Moments (Debye-Ang)
        XX     -95.5145     XY       0.5710     YY     -93.2117
        XZ      -0.0053     YZ      -0.0197     ZZ    -112.7063

 Total job time:  48.96s(wall), 48.82s(cpu)
        *  Thank you very much for using Q-Chem.  Have a nice day.  *
