 Q-Chem 5.2, Q-Chem, Inc., Pleasanton, CA (2019)
 Q-Chem 5.2.1 for Intel X86 EM64T Linux

User input:
--------------------------------------------------------------
$molecule
0 1
C        -3.52003087070000    0.22627030660000    0.48063436280000
C        -2.45359912210000   -0.18562661130000   -0.19110405870000
C        -1.12894020970000    0.42936611200000   -0.11319952330000
C        -1.01825999210000    1.81267407520000    0.01903658780000
C         0.21325195430000    2.43574622540000    0.01370958920000
C         1.36644331140000    1.68294385540000   -0.12589552340000
C         1.27939187780000    0.30653945460000   -0.25926774160000
O         2.44810369110000   -0.41947885030000   -0.42629395450000
C         2.91115331210000   -1.04848425730000    0.74801528820000
C         0.03660379800000   -0.34329544780000   -0.24624084620000
C         0.01667500570000   -1.80005281580000   -0.37745430870000
C        -0.78580531570000   -2.62264793230000    0.28432521760000
H        -4.47877041990000   -0.25001573060000    0.36583295140000
H        -3.47379565860000    1.03896743440000    1.18654408100000
H        -2.53367859070000   -1.03357273540000   -0.85965126230000
H        -1.91836532770000    2.40344455780000    0.09773736570000
H         0.27877663420000    3.50917674810000    0.11141416970000
H         2.34001204800000    2.14880140450000   -0.14319348580000
H         3.80764654070000   -1.59774512200000    0.46555463840000
H         2.16744837960000   -1.74346467940000    1.15359666120000
H         3.16329302630000   -0.30981445100000    1.51802862940000
H         0.76874984950000   -2.19912334730000   -1.04790790530000
H        -1.50708395870000   -2.26483753220000    1.00029309590000
H        -0.73436438690000   -3.68992392100000    0.14736652040000
$end

$rem
BASIS = 6-31G*
GUI = 2
METHOD = B3LYP
PRINT_ORBITALS false
MOLDEN_FORMAT false
--------------------------------------------------------------

             Standard Nuclear Orientation (Angstroms)
    I     Atom           X                Y                Z
 ----------------------------------------------------------------
    1      C      -3.5169530884    -0.1874537864     0.4166383156
    2      C      -2.4020641666    -0.4470939474    -0.2525237956
    3      C      -1.1617781795     0.3194188374    -0.1378275817
    4      C      -1.2195027756     1.7011307000     0.0377219002
    5      C      -0.0718205274     2.4671370704     0.0681957076
    6      C       1.1648366795     1.8627500266    -0.0782507190
    7      C       1.2451991451     0.4907559010    -0.2544017010
    8      O       2.4943189718    -0.0843246862    -0.4272299805
    9      C       3.0178219618    -0.6902141093     0.7337642390
   10      C       0.0894627390    -0.3034021000    -0.2781449262
   11      C       0.2460944512    -1.7471547731    -0.4536467338
   12      C      -0.4582864412    -2.6805423224     0.1718329018
   13      H      -4.4102936261    -0.7713124741     0.2742972008
   14      H      -3.5758163287     0.6021418948     1.1473890431
   15      H      -2.3729357536    -1.2769065569    -0.9474650038
   16      H      -2.1848352031     2.1769927075     0.1218755991
   17      H      -0.1367781146     3.5370447071     0.1992335514
   18      H       2.0754758058     2.4422246489    -0.0680475682
   19      H       3.9766217801    -1.1188610248     0.4471698298
   20      H       2.3590164495    -1.4818075975     1.1078579575
   21      H       3.1716153501     0.0485664924     1.5291753780
   22      H       1.0473669061    -2.0317770881    -1.1254610503
   23      H      -1.2244843729    -2.4346143289     0.8883113156
   24      H      -0.2775634533    -3.7290828710     0.0033579491
 ----------------------------------------------------------------

    9    -501.5578530989      2.97e-06  Convergence criterion met
 Total energy in the final basis set =     -501.5578530989

                    Orbital Energies (a.u.)
 --------------------------------------------------------------

 Alpha MOs
 -- Occupied --
-19.1606 -10.2377 -10.2290 -10.1959 -10.1940 -10.1895 -10.1877 -10.1861
-10.1837 -10.1827 -10.1804 -10.1760  -1.0503  -0.8648  -0.7972  -0.7840
 -0.7378  -0.7213  -0.6829  -0.6345  -0.6069  -0.5646  -0.5520  -0.5101
 -0.4948  -0.4804  -0.4608  -0.4553  -0.4500  -0.4341  -0.4230  -0.4144
 -0.3862  -0.3733  -0.3711  -0.3563  -0.3413  -0.3327  -0.2924  -0.2868
 -0.2667  -0.2300  -0.2207

          Ground-State Mulliken Net Atomic Charges

     Atom                 Charge (a.u.)
  ----------------------------------------
      1 C                    -0.346672
      2 C                    -0.134391
      3 C                     0.089616
      4 C                    -0.178181
      5 C                    -0.136917
      6 C                    -0.155955
      7 C                     0.278625
      8 O                    -0.520438
      9 C                    -0.210307
     10 C                     0.065334
     11 C                    -0.141162
     12 C                    -0.343703
     13 H                     0.141182
     14 H                     0.141557
     15 H                     0.149588
     16 H                     0.129104
     17 H                     0.131691
     18 H                     0.133536
     19 H                     0.158918
     20 H                     0.151010
     21 H                     0.140144
     22 H                     0.152911
     23 H                     0.160950
     24 H                     0.143560
  ----------------------------------------
  Sum of atomic charges =     0.000000

                    Cartesian Multipole Moments
 -----------------------------------------------------------------
    Charge (ESU x 10^10)
                 0.0000
    Dipole Moment (Debye)
         X      -0.0041      Y      -0.2793      Z       1.1070
       Tot       1.1417
    Quadrupole Moments (Debye-Ang)
        XX     -66.8261     XY      -0.7772     YY     -64.3271
        XZ       2.0784     YZ       1.2390     ZZ     -72.8391

 Total job time:  34.38s(wall), 34.25s(cpu)
        *  Thank you very much for using Q-Chem.  Have a nice day.  *
