 Q-Chem 5.2, Q-Chem, Inc., Pleasanton, CA (2019)
 Q-Chem 5.2.1 for Intel X86 EM64T Linux

User input:
--------------------------------------------------------------
$molecule
0 1
C        -3.03501314220000    1.65659244730000   -0.09462268220000
C        -2.67124799530000    0.38859115070000    0.05150104980000
C        -1.30985379170000   -0.13594556320000    0.03382877960000
C        -1.11980195260000   -1.51824893400000   -0.00660768240000
C         0.15486263510000   -2.05295993810000   -0.02937560740000
C         1.26196908690000   -1.22683462180000   -0.00909554540000
C         1.10625133430000    0.15984239890000    0.03686362260000
C         2.23603739670000    1.08280222840000    0.06506831290000
C         3.51756606700000    0.77429646160000   -0.09051964760000
C        -0.18425160470000    0.68298822520000    0.06197386050000
H        -4.07124224810000    1.94789121980000   -0.07278243550000
H        -2.32695030630000    2.45290066820000   -0.24809747030000
H        -3.43933376950000   -0.36415580530000    0.18458000140000
H        -1.97920576780000   -2.17361249710000   -0.02301910760000
H         0.28618974430000   -3.12517219480000   -0.06019962510000
H         2.24954792620000   -1.66071890740000   -0.01817371040000
H         1.96378053700000    2.12029815210000    0.21972156670000
H         3.85953606410000   -0.23211519320000   -0.26101872890000
H         4.28315136930000    1.53059720200000   -0.05762243450000
H        -0.30730517950000    1.75489733570000    0.11001934170000
$end

$rem
BASIS = 6-31G*
GUI = 2
METHOD = B3LYP
PRINT_ORBITALS false
MOLDEN_FORMAT false
--------------------------------------------------------------

             Standard Nuclear Orientation (Angstroms)
    I     Atom           X                Y                Z
 ----------------------------------------------------------------
    1      C       3.1054760388    -1.5098431932    -0.1016375280
    2      C       2.6884992263    -0.2584429298     0.0454414780
    3      C       1.3059706357     0.2076790157     0.0316473099
    4      C       1.0571492032     1.5806343171    -0.0083408494
    5      C      -0.2391763144     2.0606112560    -0.0274808116
    6      C      -1.3100597058     1.1881237482    -0.0039579370
    7      C      -1.0953391321    -0.1906613096     0.0416519623
    8      C      -2.1847377747    -1.1608592331     0.0731715564
    9      C      -3.4786757878    -0.9072004189    -0.0787520386
   10      C       0.2163248683    -0.6584090703     0.0630878526
   11      H       4.1532215468    -1.7567755747    -0.0827568337
   12      H       2.4315054390    -2.3355923594    -0.2530185636
   13      H       3.4242334257     0.5263348531     0.1762572374
   14      H       1.8878335744     2.2719741716    -0.0272705440
   15      H      -0.4161023664     3.1262573503    -0.0580033729
   16      H      -2.3152305820     1.5795853208    -0.0102266772
   17      H      -1.8681322104    -2.1857990045     0.2271150526
   18      H      -3.8636536799     0.0837134320    -0.2483385867
   19      H      -4.2112841386    -1.6953902298    -0.0435992584
   20      H       0.3850214466    -1.7241010523     0.1108555793
 ----------------------------------------------------------------

    8    -387.0458013075      3.65e-06  Convergence criterion met
 Total energy in the final basis set =     -387.0458013075

                    Orbital Energies (a.u.)
 --------------------------------------------------------------

 Alpha MOs
 -- Occupied --
-10.1944 -10.1939 -10.1895 -10.1895 -10.1872 -10.1860 -10.1857 -10.1853
-10.1793 -10.1792  -0.8663  -0.8036  -0.7784  -0.7332  -0.7212  -0.6293
 -0.6201  -0.5775  -0.5381  -0.5133  -0.4833  -0.4567  -0.4535  -0.4303
 -0.4227  -0.4049  -0.3808  -0.3721  -0.3669  -0.3403  -0.3364  -0.3157
 -0.2844  -0.2322  -0.2185

          Ground-State Mulliken Net Atomic Charges

     Atom                 Charge (a.u.)
  ----------------------------------------
      1 C                    -0.349768
      2 C                    -0.116604
      3 C                     0.181537
      4 C                    -0.195216
      5 C                    -0.127714
      6 C                    -0.183045
      7 C                     0.180874
      8 C                    -0.109415
      9 C                    -0.354355
     10 C                    -0.263666
     11 H                     0.144033
     12 H                     0.143063
     13 H                     0.127100
     14 H                     0.127193
     15 H                     0.129471
     16 H                     0.126735
     17 H                     0.126894
     18 H                     0.142763
     19 H                     0.144326
     20 H                     0.125794
  ----------------------------------------
  Sum of atomic charges =     0.000000

                    Cartesian Multipole Moments
 -----------------------------------------------------------------
    Charge (ESU x 10^10)
                 0.0000
    Dipole Moment (Debye)
         X       0.0118      Y       0.1553      Z       0.0022
       Tot       0.1558
    Quadrupole Moments (Debye-Ang)
        XX     -53.3915     XY       0.0505     YY     -52.6161
        XZ       0.3477     YZ      -0.1834     ZZ     -63.9027

 Total job time:  17.06s(wall), 16.99s(cpu)
        *  Thank you very much for using Q-Chem.  Have a nice day.  *
