 Q-Chem 5.2, Q-Chem, Inc., Pleasanton, CA (2019)
 Q-Chem 5.2.1 for Intel X86 EM64T Linux

User input:
--------------------------------------------------------------
$molecule
0 1
C         3.87801796950000   -0.17295012160000   -0.09643253050000
C         2.76623981530000   -0.88654441200000    0.02835406990000
C         1.43125830660000   -0.30455243810000    0.02768625590000
C         0.29042331030000   -1.11299907900000    0.15736978460000
C        -0.96143912580000   -0.52782636890000    0.13611254680000
C        -2.16201431900000   -1.35241003810000    0.21589649430000
C        -3.31809218100000   -1.10503337250000   -0.38770416330000
C        -0.96561301520000    0.89132994990000    0.04835621600000
N        -2.11174500840000    1.63046345980000    0.05384508240000
N         0.16266801550000    1.58774975300000   -0.07494981820000
N         1.31910699860000    1.01278784370000   -0.10607791680000
H         4.85234292570000   -0.63058833450000   -0.09308444440000
H         3.82674603720000    0.89622033290000   -0.20629293210000
H         2.80210375190000   -1.96329448330000    0.13895349620000
H         0.38988148620000   -2.18642723440000    0.24493753410000
H        -2.04284552950000   -2.26302371140000    0.79181285390000
H        -3.46305967130000   -0.25136849170000   -1.02782993260000
H        -4.15003164320000   -1.78315740290000   -0.29785793190000
H        -2.92232965990000    1.23504468210000    0.50180598030000
H        -1.96382168460000    2.62051954660000    0.17011629430000
$end

$rem
BASIS = 6-31G*
GUI = 2
METHOD = B3LYP
PRINT_ORBITALS false
MOLDEN_FORMAT false
--------------------------------------------------------------

             Standard Nuclear Orientation (Angstroms)
    I     Atom           X                Y                Z
 ----------------------------------------------------------------
    1      C       3.8950263723     0.1333369039     0.1146040616
    2      C       2.7854735816     0.8524151036     0.0020948685
    3      C       1.4490541839     0.2739845716    -0.0149944645
    4      C       0.3106980601     1.0880757004    -0.1303601750
    5      C      -0.9426834929     0.5057875928    -0.1266490961
    6      C      -2.1409149178     1.3350396467    -0.1919712489
    7      C      -3.2997241054     1.0770822889     0.4018841711
    8      C      -0.9506972864    -0.9149714290    -0.0709460140
    9      N      -2.0986381905    -1.6508489097    -0.0970809157
   10      N       0.1754061725    -1.6168885363     0.0405276546
   11      N       1.3331551908    -1.0457450111     0.0886271528
   12      H       4.8704926323     0.5884318709     0.1249583077
   13      H       3.8407078355    -0.9379039895     0.2001378242
   14      H       2.8244057273     1.9312898756    -0.0840601389
   15      H       0.4131344430     2.1629467938    -0.1933440161
   16      H      -2.0174526108     2.2581003525    -0.7467812235
   17      H      -3.4490694133     0.2095739388     1.0220821588
   18      H      -4.1296521573     1.7591931463     0.3244760232
   19      H      -2.9066532601    -1.2433494514    -0.5388141970
   20      H      -1.9527697796    -2.6384076099    -0.2351445958
 ----------------------------------------------------------------

    9    -474.4489769043      2.21e-06  Convergence criterion met
 Total energy in the final basis set =     -474.4489769043

                    Orbital Energies (a.u.)
 --------------------------------------------------------------

 Alpha MOs
 -- Occupied --
-14.3516 -14.3497 -14.3462 -10.2623 -10.2160 -10.2151 -10.2101 -10.2071
-10.1972 -10.1838 -10.1718  -1.0242  -0.9334  -0.8411  -0.8180  -0.7691
 -0.7459  -0.6682  -0.6478  -0.6021  -0.5792  -0.5332  -0.5188  -0.4931
 -0.4874  -0.4631  -0.4417  -0.4332  -0.4246  -0.3994  -0.3794  -0.3594
 -0.3535  -0.3298  -0.3127  -0.2881  -0.2569  -0.2143  -0.2080

          Ground-State Mulliken Net Atomic Charges

     Atom                 Charge (a.u.)
  ----------------------------------------
      1 C                    -0.337983
      2 C                    -0.107860
      3 C                     0.327428
      4 C                    -0.239498
      5 C                     0.166788
      6 C                    -0.136479
      7 C                    -0.360646
      8 C                     0.434602
      9 N                    -0.780762
     10 N                    -0.344232
     11 N                    -0.336331
     12 H                     0.138153
     13 H                     0.173993
     14 H                     0.121532
     15 H                     0.140866
     16 H                     0.143872
     17 H                     0.172266
     18 H                     0.152329
     19 H                     0.330820
     20 H                     0.341141
  ----------------------------------------
  Sum of atomic charges =     0.000000

                    Cartesian Multipole Moments
 -----------------------------------------------------------------
    Charge (ESU x 10^10)
                 0.0000
    Dipole Moment (Debye)
         X      -3.1168      Y       2.2672      Z      -1.1237
       Tot       4.0146
    Quadrupole Moments (Debye-Ang)
        XX     -54.9152     XY       5.3603     YY     -61.0918
        XZ       1.8642     YZ       0.7461     ZZ     -66.1102

 Total job time:  21.85s(wall), 21.71s(cpu)
        *  Thank you very much for using Q-Chem.  Have a nice day.  *
