 Q-Chem 5.2, Q-Chem, Inc., Pleasanton, CA (2019)
 Q-Chem 5.2.1 for Intel X86 EM64T Linux

User input:
--------------------------------------------------------------
$molecule
0 1
C         3.76437107800000   -0.48562818800000    2.76880832880000
C         2.52244958990000   -0.12410227730000    2.45563936910000
C         1.82558411000000   -0.52592326280000    1.26444827030000
S         2.53981331670000   -1.66801017130000    0.16845189950000
C         1.15558853690000   -1.59650171680000   -0.87769811560000
C         1.11753216050000   -2.36876482490000   -2.08952774970000
C         2.03640221310000   -3.26055685520000   -2.45218408040000
C         0.19712176080000   -0.73157078270000   -0.39001282400000
C        -1.11685752970000   -0.52925214820000   -1.08459729870000
C        -2.06458120140000   -1.71959514060000   -0.87143231170000
C        -2.55275208040000   -1.84807676180000    0.57259947460000
C        -3.66408275000000   -0.86203547530000    0.94032463540000
C        -5.02787165490000   -1.26515807430000    0.38295826230000
C        -6.11076604870000   -0.26433635260000    0.76765524950000
C         0.57935618170000   -0.12126360540000    0.83144867350000
C        -0.22300921270000    0.90807205820000    1.57036154870000
C         0.30699836610000    2.32717145190000    1.31947741330000
C         0.15436605740000    2.75459088390000   -0.13750976440000
C         0.75325649700000    4.13633823910000   -0.38755040320000
C         0.51997737960000    4.64437157710000   -1.81067834490000
C         1.25723441350000    3.82898149620000   -2.86667849220000
H         4.23541745010000   -0.15849793540000    3.67879676790000
H         4.34672520820000   -1.11911954670000    2.12040403260000
H         1.96778207360000    0.51866570900000    3.12614898300000
H         0.26748738580000   -2.18549185440000   -2.73316836380000
H         2.89162253190000   -3.47169530710000   -1.83182395430000
H         1.96030448120000   -3.80615678540000   -3.37602075350000
H        -0.94172595070000   -0.40718811080000   -2.15647390190000
H        -1.59097697940000    0.38447370140000   -0.73049518480000
H        -1.53917601930000   -2.63613360470000   -1.14751236850000
H        -2.92061057210000   -1.61429173590000   -1.54034295840000
H        -1.70095595070000   -1.70632228000000    1.24128914390000
H        -2.92544934100000   -2.86250254430000    0.73271908040000
H        -3.41555407490000    0.13640017370000    0.57439972420000
H        -3.73778224450000   -0.80210623070000    2.02900776000000
H        -5.29431144990000   -2.25290841280000    0.76613221350000
H        -4.97737323020000   -1.33608269820000   -0.70527698150000
H        -6.19383192450000   -0.18910461150000    1.84991857530000
H        -7.07555724180000   -0.57097540170000    0.37023867200000
H        -5.87647513000000    0.72279831480000    0.37415737510000
H        -0.18371088740000    0.69821260840000    2.64194473440000
H        -1.26854260530000    0.85836442030000    1.26959620130000
H         1.36333467570000    2.37029014200000    1.59397341760000
H        -0.23482465050000    3.02597585790000    1.96194381200000
H        -0.90605764900000    2.77292668920000   -0.40255546300000
H         0.64893222800000    2.01959366350000   -0.77393594500000
H         1.82697729950000    4.10495697960000   -0.18796693640000
H         0.30790618440000    4.84580860800000    0.31517544210000
H         0.85622478170000    5.68246788280000   -1.86886096720000
H        -0.55120027670000    4.63294643510000   -2.02615410240000
H         2.32174954240000    3.79445290040000   -2.64510971400000
H         1.12604423150000    4.27735860700000   -3.84905343790000
H         0.88166760610000    2.80986109370000   -2.90738258470000
$end

$rem
BASIS = 6-31G*
GUI = 2
METHOD = B3LYP
PRINT_ORBITALS false
MOLDEN_FORMAT false
--------------------------------------------------------------

             Standard Nuclear Orientation (Angstroms)
    I     Atom           X                Y                Z
 ----------------------------------------------------------------
    1      C      -3.4171872593    -1.8535944157    -2.7711604891
    2      C      -2.3317215743    -1.1409717920    -2.4794791444
    3      C      -1.6158738586    -1.2067202507    -1.2347876069
    4      S      -2.0601405748    -2.3685068574    -0.0229407203
    5      C      -0.7989885535    -1.8137856136     1.0341314036
    6      C      -0.6215897368    -2.4077613621     2.3310863481
    7      C      -1.2911453886    -3.4663569033     2.7807590317
    8      C      -0.0778020108    -0.7842644805     0.4644146033
    9      C       1.0993450807    -0.1622779209     1.1553411137
   10      C       2.3362463438    -1.0723617442     1.1067756017
   11      C       2.9145123345    -1.2259453886    -0.3010832841
   12      C       3.7449894056    -0.0263014039    -0.7633788756
   13      C       5.1362945781     0.0141544653    -0.1343172567
   14      C       5.9363609362     1.2184607126    -0.6158112277
   15      C      -0.5437491345    -0.4383018907    -0.8293200517
   16      C      -0.0032697831     0.6788984737    -1.6713769311
   17      C      -0.8997692340     1.9237070690    -1.6047866359
   18      C      -0.9398671824     2.5360092930    -0.2075487286
   19      C      -1.8928736293     3.7265747492    -0.1386398024
   20      C      -1.8747181551     4.4338042426     1.2168331705
   21      C      -2.4249795428     3.5741284008     2.3489617327
   22      H      -3.9102741094    -1.7676902191    -3.7232443475
   23      H      -3.8450777157    -2.5432218913    -2.0625001558
   24      H      -1.9318094224    -0.4523224053    -3.2117510701
   25      H       0.1161884841    -1.9335783738     2.9645467898
   26      H      -2.0277821260    -3.9660001823     2.1736751524
   27      H      -1.1218761483    -3.8653110125     3.7652019656
   28      H       0.8434838350     0.0272761288     2.2008526808
   29      H       1.3341895169     0.7994954875     0.7026685064
   30      H       2.0567352008    -2.0592204149     1.4813380722
   31      H       3.0989846844    -0.6683972719     1.7748769957
   32      H       2.0909099940    -1.3922675059    -0.9988031358
   33      H       3.5484301125    -2.1152871601    -0.3297305988
   34      H       3.2243388557     0.9038347589    -0.5260794619
   35      H       3.8561550470    -0.0706099030    -1.8496261001
   36      H       5.6722796091    -0.9028931348    -0.3896737098
   37      H       5.0503954368     0.0540839752     0.9532779395
   38      H       6.0521994218     1.1920168879    -1.6973544910
   39      H       6.9260971341     1.2268897510    -0.1650999026
   40      H       5.4309822667     2.1446551724    -0.3494958385
   41      H       0.0690521733     0.3480744589    -2.7102228662
   42      H       1.0016969363     0.9440544137    -1.3461002196
   43      H      -1.9147616666     1.6522874030    -1.9034091461
   44      H      -0.5283999909     2.6656911257    -2.3162691708
   45      H       0.0633973237     2.8662921742     0.0743331799
   46      H      -1.2558831886     1.7713276526     0.5032612087
   47      H      -2.9088827622     3.3875506291    -0.3542384878
   48      H      -1.6141623317     4.4462881976    -0.9131340140
   49      H      -2.4745034681     5.3441748536     1.1421712542
   50      H      -0.8507251234     4.7329458406     1.4533378910
   51      H      -3.4301630017     3.2320992949     2.1121079557
   52      H      -2.4668712919     4.1478606132     3.2722113528
   53      H      -1.7973763031     2.7034449339     2.5202454706
 ----------------------------------------------------------------

    9   -1179.5628382850      1.62e-06  Convergence criterion met
 Total energy in the final basis set =    -1179.5628382850

                    Orbital Energies (a.u.)
 --------------------------------------------------------------

 Alpha MOs
 -- Occupied --
-88.8928 -10.2090 -10.2089 -10.1938 -10.1938 -10.1892 -10.1887 -10.1851
-10.1850 -10.1781 -10.1779 -10.1778 -10.1774 -10.1753 -10.1742 -10.1727
-10.1719 -10.1715 -10.1711 -10.1687 -10.1650  -7.9549  -5.9190  -5.9155
 -5.9116  -0.8886  -0.8161  -0.8141  -0.8011  -0.7864  -0.7713  -0.7641
 -0.7343  -0.7242  -0.6882  -0.6858  -0.6450  -0.6400  -0.6258  -0.5988
 -0.5925  -0.5664  -0.5643  -0.5562  -0.5286  -0.5086  -0.4897  -0.4829
 -0.4722  -0.4622  -0.4517  -0.4476  -0.4381  -0.4295  -0.4250  -0.4223
 -0.4181  -0.4169  -0.4113  -0.3959  -0.3888  -0.3872  -0.3823  -0.3778
 -0.3675  -0.3658  -0.3614  -0.3540  -0.3487  -0.3439  -0.3395  -0.3365
 -0.3316  -0.3235  -0.3226  -0.3175  -0.3169  -0.3121  -0.3104  -0.3068
 -0.3033  -0.2636  -0.2351  -0.1912

          Ground-State Mulliken Net Atomic Charges

     Atom                 Charge (a.u.)
  ----------------------------------------
      1 C                    -0.378425
      2 C                    -0.054465
      3 C                    -0.203320
      4 S                     0.233673
      5 C                    -0.203049
      6 C                    -0.055013
      7 C                    -0.377993
      8 C                     0.113662
      9 C                    -0.355534
     10 C                    -0.261241
     11 C                    -0.265908
     12 C                    -0.252198
     13 C                    -0.253840
     14 C                    -0.441073
     15 C                     0.111668
     16 C                    -0.359716
     17 C                    -0.255186
     18 C                    -0.262422
     19 C                    -0.250340
     20 C                    -0.249289
     21 C                    -0.444848
     22 H                     0.143835
     23 H                     0.157458
     24 H                     0.138237
     25 H                     0.138383
     26 H                     0.157577
     27 H                     0.143917
     28 H                     0.146567
     29 H                     0.147878
     30 H                     0.144138
     31 H                     0.132110
     32 H                     0.144790
     33 H                     0.131073
     34 H                     0.127679
     35 H                     0.129285
     36 H                     0.132660
     37 H                     0.134927
     38 H                     0.142325
     39 H                     0.142087
     40 H                     0.140725
     41 H                     0.145701
     42 H                     0.150810
     43 H                     0.142375
     44 H                     0.128563
     45 H                     0.123425
     46 H                     0.153245
     47 H                     0.130356
     48 H                     0.125152
     49 H                     0.129131
     50 H                     0.127364
     51 H                     0.143646
     52 H                     0.140998
     53 H                     0.148439
  ----------------------------------------
  Sum of atomic charges =     0.000000

                    Cartesian Multipole Moments
 -----------------------------------------------------------------
    Charge (ESU x 10^10)
                 0.0000
    Dipole Moment (Debye)
         X       1.0146      Y       0.9724      Z      -0.0808
       Tot       1.4077
    Quadrupole Moments (Debye-Ang)
        XX    -139.6112     XY       0.2116     YY    -141.4965
        XZ       2.8865     YZ      -2.4762     ZZ    -134.5167

 Total job time:  144.62s(wall), 144.25s(cpu)
        *  Thank you very much for using Q-Chem.  Have a nice day.  *
