 Q-Chem 5.2, Q-Chem, Inc., Pleasanton, CA (2019)
 Q-Chem 5.2.1 for Intel X86 EM64T Linux

User input:
--------------------------------------------------------------
$molecule
0 1
C         3.47600149840000    1.75058088890000    0.39918228970000
C         2.33645681940000    1.74630012340000   -0.27894203820000
C         1.28204156340000    0.75218725420000   -0.16892871180000
C        -0.08147234130000    1.08565336960000   -0.24201782170000
C        -0.81286650780000   -0.06201588850000    0.00321877930000
C        -2.23891865220000   -0.32626935330000    0.06244027740000
O        -2.71143147210000   -1.41931242340000    0.29541807010000
O        -2.97945003910000    0.77125660070000   -0.16988192120000
C        -4.38464474160000    0.58195665900000   -0.12776982700000
N         0.07598882810000   -1.07469447820000    0.21277988370000
C         1.35078048030000   -0.62370395650000    0.10065212140000
C         2.43730814000000   -1.57102080390000    0.18905620960000
C         3.65530159220000   -1.42739158110000   -0.32280694160000
H         4.19040599790000    2.54904211080000    0.29342201120000
H         3.73142359960000    0.96377270980000    1.08836663090000
H         2.09563387430000    2.57913112960000   -0.92882725630000
H        -0.48862473930000    2.05870803240000   -0.43036350290000
H        -4.82792242230000    1.55555842300000   -0.32008494510000
H        -4.68930325940000    0.20789273630000    0.85225769360000
H        -4.69481008090000   -0.13804142890000   -0.88847313090000
H        -0.20799612360000   -2.02740414100000    0.38276599870000
H         2.17444414940000   -2.49966190330000    0.68411989020000
H         3.94824918130000   -0.53848796060000   -0.85257855640000
H         4.39332654690000   -2.20516404770000   -0.23144721000000
$end

$rem
BASIS = 6-31G*
GUI = 2
METHOD = B3LYP
PRINT_ORBITALS false
MOLDEN_FORMAT false
--------------------------------------------------------------

             Standard Nuclear Orientation (Angstroms)
    I     Atom           X                Y                Z
 ----------------------------------------------------------------
    1      C       3.4549717672     1.6895887643     0.5177290648
    2      C       2.3130851581     1.7405652362    -0.1545278621
    3      C       1.2551248064     0.7448913861    -0.1156905188
    4      C      -0.1073011203     1.0879440666    -0.1583787979
    5      C      -0.8423865899    -0.0722194999     0.0025342045
    6      C      -2.2692617884    -0.3349143006     0.0470359789
    7      O      -2.7452953320    -1.4406400630     0.1988673770
    8      O      -3.0062356733     0.7797104718    -0.0992673648
    9      C      -4.4120157550     0.5929668069    -0.0662641228
   10      N       0.0431668571    -1.1010726279     0.1319711549
   11      C       1.3193410209    -0.6476313608     0.0493311926
   12      C       2.4024048711    -1.6029195977     0.0621346360
   13      C       3.6191838531    -1.4256704738    -0.4420210402
   14      H       4.1721654250     2.4911023612     0.4696815941
   15      H       3.7096513183     0.8522040617     1.1447919028
   16      H       2.0733225872     2.6208302190    -0.7389946636
   17      H      -0.5112420699     2.0739108625    -0.2714439749
   18      H      -4.8520930219     1.5799112675    -0.1831111704
   19      H      -4.7147695860     0.1473305620     0.8839690207
   20      H      -4.7276557059    -0.0665857628    -0.8778250448
   21      H      -0.2440027498    -2.0628189756     0.2308448787
   22      H       2.1375733908    -2.5652103479     0.4868941161
   23      H       3.9138212455    -0.5005030321    -0.9044925660
   24      H       4.3544318700    -2.2108322541    -0.4122086842
 ----------------------------------------------------------------

    9    -592.8502511349      5.71e-06  Convergence criterion met
 Total energy in the final basis set =     -592.8502511349

                    Orbital Energies (a.u.)
 --------------------------------------------------------------

 Alpha MOs
 -- Occupied --
-19.1887 -19.1284 -14.3901 -10.3116 -10.2370 -10.2274 -10.2173 -10.2013
-10.1887 -10.1862 -10.1836 -10.1828 -10.1728  -1.1037  -1.0150  -0.9946
 -0.8141  -0.8010  -0.7605  -0.7442  -0.7087  -0.6306  -0.6195  -0.6036
 -0.5625  -0.5429  -0.5213  -0.4890  -0.4829  -0.4690  -0.4610  -0.4453
 -0.4331  -0.4313  -0.4191  -0.4107  -0.3936  -0.3858  -0.3638  -0.3579
 -0.3522  -0.3001  -0.2960  -0.2946  -0.2740  -0.2377  -0.1995

          Ground-State Mulliken Net Atomic Charges

     Atom                 Charge (a.u.)
  ----------------------------------------
      1 C                    -0.344771
      2 C                    -0.128232
      3 C                     0.030071
      4 C                    -0.235109
      5 C                     0.291646
      6 C                     0.572303
      7 O                    -0.521911
      8 O                    -0.458498
      9 C                    -0.215363
     10 N                    -0.687550
     11 C                     0.326622
     12 C                    -0.133618
     13 C                    -0.340902
     14 H                     0.138318
     15 H                     0.150964
     16 H                     0.130294
     17 H                     0.145822
     18 H                     0.163732
     19 H                     0.168212
     20 H                     0.167468
     21 H                     0.344020
     22 H                     0.127837
     23 H                     0.164278
     24 H                     0.144368
  ----------------------------------------
  Sum of atomic charges =     0.000000

                    Cartesian Multipole Moments
 -----------------------------------------------------------------
    Charge (ESU x 10^10)
                 0.0000
    Dipole Moment (Debye)
         X       0.3683      Y       0.2409      Z      -0.1555
       Tot       0.4668
    Quadrupole Moments (Debye-Ang)
        XX     -66.5879     XY      -7.0156     YY     -71.2856
        XZ       0.7431     YZ      -1.7332     ZZ     -77.0752

 Total job time:  30.73s(wall), 30.63s(cpu)
        *  Thank you very much for using Q-Chem.  Have a nice day.  *
