 Q-Chem 5.2, Q-Chem, Inc., Pleasanton, CA (2019)
 Q-Chem 5.2.1 for Intel X86 EM64T Linux

User input:
--------------------------------------------------------------
$molecule
0 1
C         3.69341503530000    1.00932320850000    0.17312291430000
C         2.46034095240000    1.42204673670000   -0.09454271460000
C         1.24100191430000    0.62056755080000   -0.04220714100000
C         1.20455359110000   -0.77646004570000   -0.04754003760000
F         2.33127696130000   -1.49631717390000   -0.11674037090000
C        -0.00003299850000   -1.46530169010000    0.00019564340000
F        -0.00000241840000   -2.80506534700000    0.00012360540000
C        -1.20463346900000   -0.77648580780000    0.04794239260000
F        -2.33143170990000   -1.49621969530000    0.11701391070000
C        -1.24100388560000    0.62052343230000    0.04296342150000
C        -2.46050264080000    1.42181427510000    0.09494321330000
C        -3.69278451540000    1.00948737700000   -0.17691230010000
C        -0.00002210510000    1.26212647170000    0.00060995900000
F        -0.00010810550000    2.60816703300000    0.00090316070000
H         4.52169820560000    1.69362939030000    0.10774496330000
H         3.93134973940000    0.00351899710000    0.46881535980000
H         2.29237853180000    2.45763424320000   -0.35859687250000
H        -2.29332672150000    2.45655543940000    0.36228335810000
H        -3.92953777110000    0.00445481210000   -0.47601888460000
H        -4.52151668800000    1.69320922780000   -0.11176068500000
$end

$rem
BASIS = 6-31G*
GUI = 2
METHOD = B3LYP
PRINT_ORBITALS false
MOLDEN_FORMAT false
--------------------------------------------------------------

             Standard Nuclear Orientation (Angstroms)
    I     Atom           X                Y                Z
 ----------------------------------------------------------------
    1      C       3.6940619400     0.9535503948     0.1585550283
    2      C       2.4599375838     1.3662701552    -0.1042315131
    3      C       1.2408174236     0.5647874592    -0.0470728704
    4      C       1.2043523581    -0.8322402470    -0.0522606242
    5      F       2.3307952964    -1.5520941458    -0.1259165475
    6      C      -0.0000339912    -1.5210853617     0.0002397351
    7      F       0.0000002032    -2.8608490186     0.0001684728
    8      C      -1.2044381873    -0.8322729498     0.0527502961
    9      F      -2.3309523152    -1.5520100670     0.1262786642
   10      C      -1.2408320792     0.5647361811     0.0479142882
   11      C      -2.4601180275     1.3660235130     0.1047167117
   12      C      -3.6934643528     0.9536928466    -0.1622622631
   13      C      -0.0000293976     1.2063428004     0.0006521803
   14      F      -0.0001181553     2.5523833616     0.0009448197
   15      H       4.5220780450     1.6378589407     0.0899009610
   16      H       3.9331672847    -0.0522529236     0.4533047126
   17      H       2.2909290298     2.4018569936    -0.3676199437
   18      H      -2.2918889973     2.4007653453     0.3713928299
   19      H      -3.9313959098    -0.0513406102    -0.4604293878
   20      H      -4.5219343336     1.6374123318    -0.0938336688
 ----------------------------------------------------------------

    9    -783.9606084716      3.25e-06  Convergence criterion met
 Total energy in the final basis set =     -783.9606084716

                    Orbital Energies (a.u.)
 --------------------------------------------------------------

 Alpha MOs
 -- Occupied --
-24.7338 -24.7338 -24.7300 -24.7267 -10.3000 -10.2999 -10.2952 -10.2932
-10.2264 -10.2264 -10.2057 -10.2057 -10.1906 -10.1906  -1.2543  -1.2472
 -1.2432  -1.2327  -0.8996  -0.8274  -0.8008  -0.7544  -0.7471  -0.6727
 -0.6488  -0.6116  -0.5945  -0.5841  -0.5586  -0.5472  -0.5222  -0.5205
 -0.5110  -0.4818  -0.4801  -0.4770  -0.4682  -0.4559  -0.4428  -0.4365
 -0.4264  -0.4242  -0.4062  -0.3845  -0.3678  -0.3643  -0.3521  -0.3279
 -0.2891  -0.2408  -0.2351

          Ground-State Mulliken Net Atomic Charges

     Atom                 Charge (a.u.)
  ----------------------------------------
      1 C                    -0.346047
      2 C                    -0.105184
      3 C                     0.023717
      4 C                     0.258210
      5 F                    -0.269220
      6 C                     0.266474
      7 F                    -0.272948
      8 C                     0.258231
      9 F                    -0.269213
     10 C                     0.023503
     11 C                    -0.105192
     12 C                    -0.345888
     13 C                     0.234527
     14 F                    -0.276458
     15 H                     0.149042
     16 H                     0.162335
     17 H                     0.151371
     18 H                     0.151373
     19 H                     0.162298
     20 H                     0.149069
  ----------------------------------------
  Sum of atomic charges =     0.000000

                    Cartesian Multipole Moments
 -----------------------------------------------------------------
    Charge (ESU x 10^10)
                 0.0000
    Dipole Moment (Debye)
         X      -0.0009      Y       1.3798      Z      -0.0007
       Tot       1.3798
    Quadrupole Moments (Debye-Ang)
        XX     -70.2710     XY      -0.0038     YY     -78.7375
        XZ       0.9192     YZ       0.0056     ZZ     -77.2220

 Total job time:  30.61s(wall), 30.51s(cpu)
        *  Thank you very much for using Q-Chem.  Have a nice day.  *
