 Q-Chem 5.4, Q-Chem, Inc., Pleasanton, CA (2021)
 Q-Chem 5.4.2 for Intel X86 EM64T Linux

User input:
--------------------------------------------------------------
$molecule
0 1
C           -4.52296409660000       -1.31753990530000       -0.03883351270000
C           -3.82460811440000       -0.18805514070000       -0.06106554720000
C           -2.37579172870000       -0.05936748260000        0.00951711070000
C           -1.51577536190000       -1.14671426110000        0.16698003710000
C           -0.15269119780000       -0.95979928960000        0.22629613480000
C            0.41210736150000        0.31413798190000        0.13122359280000
C            1.85172447680000        0.51566806730000        0.21089659030000
C            2.80572499320000       -0.37767748140000       -0.00302792430000
F            2.67628866990000       -1.64959517310000       -0.36365782820000
F            4.10481672290000       -0.09273458210000        0.10469225520000
C           -0.43970049150000        1.42116766170000       -0.02309307070000
C            0.09953507430000        2.81575161220000       -0.14159675100000
C           -1.80588041090000        1.21128401030000       -0.08095192220000
H           -5.59779930110000       -1.31102299220000       -0.09789670560000
H           -4.06236524150000       -2.28741936450000        0.03603354980000
H           -4.35536999440000        0.75301668230000       -0.14333531400000
H           -1.91302707880000       -2.14576466110000        0.24922282170000
H            0.48591825960000       -1.81752261380000        0.36329646150000
H            2.20599165790000        1.50262074940000        0.46584466190000
H            0.60566635550000        3.11450808090000        0.77633688140000
H           -0.70874154890000        3.51902055970000       -0.32488241360000
H            0.81083505680000        2.88878588880000       -0.96279099300000
H           -2.45887205830000        2.06484814870000       -0.20364371640000
$end

$rem
BASIS = 6-31G*
GUI = 2
METHOD = B3LYP
PRINT_ORBITALS false
MOLDEN_FORMAT false
$end
--------------------------------------------------------------

             Standard Nuclear Orientation (Angstroms)
    I     Atom           X                Y                Z
 ----------------------------------------------------------------
    1      C       4.4389133631    -1.2565939265     0.0435108449
    2      C       3.7145333247    -0.1434784036     0.0568737536
    3      C       2.2629730530    -0.0491444996    -0.0115750358
    4      C       1.4281446548    -1.1575961893    -0.1569783999
    5      C       0.0609628698    -1.0029566695    -0.2148975685
    6      C      -0.5331033028     0.2583475221    -0.1303429022
    7      C      -1.9771792873     0.4256300006    -0.2085779566
    8      C      -2.9097050410    -0.4876028942     0.0158064262
    9      F      -2.7499825151    -1.7527540328     0.3879134203
   10      F      -4.2152915593    -0.2339307905    -0.0915701168
   11      C       0.2930546529     1.3862559400     0.0117507155
   12      C      -0.2782118405     2.7689812262     0.1185584365
   13      C       1.6638623438     1.2087132673     0.0684185184
   14      H       5.5134269099    -1.2245604554     0.1000452785
   15      H       4.0008341556    -2.2375669060    -0.0213055810
   16      H       4.2234415996     0.8103948286     0.1291986351
   17      H       1.8483451728    -2.1478721105    -0.2308676980
   18      H      -0.5578151767    -1.8765229055    -0.3424757400
   19      H      -2.3548263689     1.4016676779    -0.4718506019
   20      H      -0.7930587075     3.0473310940    -0.8009417046
   21      H       0.5138743858     3.4925142006     0.2934623851
   22      H      -0.9893096730     2.8331233945     0.9406699305
   23      H       2.2970856304     2.0783223498     0.1816943722
 ----------------------------------------------------------------

    9    -624.8317930279      5.74e-06  Convergence criterion met
 Total energy in the final basis set =     -624.8317930279

                    Orbital Energies (a.u.)
 --------------------------------------------------------------

 Alpha MOs
 -- Occupied --
-24.7430 -24.7331 -10.3562 -10.2018 -10.2014 -10.1967 -10.1926 -10.1891
-10.1858 -10.1853 -10.1840 -10.1839 -10.1788  -1.2838  -1.2229  -0.8718
 -0.8173  -0.7840  -0.7668  -0.7251  -0.6904  -0.6458  -0.6119  -0.6080
 -0.5729  -0.5453  -0.5284  -0.5181  -0.5016  -0.4715  -0.4567  -0.4411
 -0.4364  -0.4344  -0.4286  -0.4196  -0.4085  -0.4053  -0.3930  -0.3705
 -0.3691  -0.3421  -0.3359  -0.3163  -0.2660  -0.2474  -0.2078

          Ground-State Mulliken Net Atomic Charges

     Atom                 Charge (a.u.)
  ----------------------------------------
      1 C                    -0.354293
      2 C                    -0.114287
      3 C                     0.197342
      4 C                    -0.192006
      5 C                    -0.194849
      6 C                     0.136706
      7 C                    -0.310342
      8 C                     0.550228
      9 F                    -0.234640
     10 F                    -0.250096
     11 C                     0.132922
     12 C                    -0.538669
     13 C                    -0.276962
     14 H                     0.143811
     15 H                     0.142967
     16 H                     0.125857
     17 H                     0.126439
     18 H                     0.136164
     19 H                     0.161328
     20 H                     0.163983
     21 H                     0.160335
     22 H                     0.167331
     23 H                     0.120731
  ----------------------------------------
  Sum of atomic charges =     0.000000

                    Cartesian Multipole Moments
 -----------------------------------------------------------------
    Charge (ESU x 10^10)
                 0.0000
    Dipole Moment (Debye)
         X       0.6033      Y       1.0182      Z      -0.1503
       Tot       1.1930
    Quadrupole Moments (Debye-Ang)
        XX     -73.9721     XY      -1.6751     YY     -67.7984
        XZ       0.7807     YZ       0.6777     ZZ     -76.9257

 Total job time:  47.73s(wall), 46.28s(cpu)
        *  Thank you very much for using Q-Chem.  Have a nice day.  *
