 Q-Chem 5.2, Q-Chem, Inc., Pleasanton, CA (2019)
 Q-Chem 5.2.1 for Intel X86 EM64T Linux

User input:
--------------------------------------------------------------
$molecule
0 1
F        -6.19754544300000   -1.11676434670000   -0.08004991380000
C        -4.94949001550000   -0.64369658970000   -0.05141732620000
F        -4.99786771230000    0.68363982350000    0.01398243850000
C        -3.87982518850000   -1.42480329680000   -0.08514919730000
C        -2.47751013190000   -1.04568866220000   -0.05999933120000
C        -2.04739219060000    0.27803684330000   -0.00888666260000
C        -0.68871847670000    0.54265828630000    0.01629394540000
C         0.07143038140000    1.76164251360000    0.04792524870000
C        -0.27918779440000    3.10443386710000    0.09180895680000
C         0.72772780530000    4.04780209180000    0.13679093780000
C         2.06757019030000    3.66619450040000    0.15309885490000
C         2.44059128520000    2.33629984840000    0.11004816030000
C         1.43349709770000    1.38475815550000    0.04115843100000
N         1.52586507920000    0.00547540140000    0.01215112430000
C         2.71668168660000   -0.73677738100000   -0.00435875120000
C         2.90996559020000   -1.76792105430000    0.90987254250000
C         4.08279337900000   -2.49976663170000    0.88575579840000
C         5.07144906010000   -2.20491534620000   -0.03825105300000
C         4.88196815740000   -1.17559268660000   -0.94536598120000
C         3.70844834950000   -0.44459955610000   -0.93576284250000
C         0.25224747260000   -0.51472333100000   -0.00107957770000
C        -0.17010316420000   -1.83582633670000   -0.07632775040000
C        -1.52547496720000   -2.07992626520000   -0.10078090640000
H        -4.09257095360000   -2.48301805510000   -0.13714389070000
H        -2.74930105370000    1.09472202510000    0.00636856010000
H        -1.31775190230000    3.39798289640000    0.09494125950000
H         0.47821090090000    5.09774972920000    0.16908950860000
H         2.83255814930000    4.42681991940000    0.20416276390000
H         3.48101547570000    2.04989709490000    0.14062827060000
H         2.14568448950000   -1.97991715100000    1.64265350780000
H         4.22842140720000   -3.29874147960000    1.59751149590000
H         5.98746128220000   -2.77582222450000   -0.05131394390000
H         5.64863989290000   -0.94521605040000   -1.67013624200000
H         3.54729358330000    0.34454253710000   -1.65492576080000
H         0.53849244130000   -2.64856338870000   -0.12580551700000
H        -1.87234736480000   -3.10126179720000   -0.15693872340000
$end

$rem
BASIS = 6-31G*
GUI = 2
METHOD = B3LYP
PRINT_ORBITALS false
MOLDEN_FORMAT false
--------------------------------------------------------------

             Standard Nuclear Orientation (Angstroms)
    I     Atom           X                Y                Z
 ----------------------------------------------------------------
    1      F       6.2848219622    -1.1521691550     0.0918175634
    2      C       5.0396024081    -0.6718833866     0.0600509042
    3      F       5.0958558097     0.6549096038    -0.0099162300
    4      C       3.9653271643    -1.4465726298     0.0952311020
    5      C       2.5652945625    -1.0593197630     0.0670909025
    6      C       2.1430229807     0.2667221870     0.0108537230
    7      C       0.7859581579     0.5392281493    -0.0168662876
    8      C       0.0330232818     1.7625373473    -0.0536501262
    9      C       0.3915773845     3.1030851801    -0.1017954022
   10      C      -0.6097238338     4.0521872943    -0.1512631463
   11      C      -1.9517655947     3.6783997004    -0.1678361768
   12      C      -2.3326454526     2.3508769175    -0.1205955198
   13      C      -1.3312416520     1.3936839548    -0.0471914947
   14      N      -1.4317472322     0.0150770923    -0.0134879214
   15      C      -2.6269236083    -0.7201078198     0.0041907764
   16      C      -2.8251939138    -1.7532845802    -0.9066711606
   17      C      -4.0023295364    -2.4781416064    -0.8814004972
   18      C      -4.9903158386    -2.1742651455     0.0403956630
   19      C      -4.7958508410    -1.1429118716     0.9441431012
   20      C      -3.6180452016    -0.4188606597     0.9333897391
   21      C      -0.1612249021    -0.5125424398     0.0030716257
   22      C       0.2532666880    -1.8358320659     0.0834257604
   23      C       1.6071511044    -2.0878001427     0.1103428813
   24      H       4.1717897070    -2.5058304624     0.1511662961
   25      H       2.8497363211     1.0792131830    -0.0064117298
   26      H       1.4318515470     3.3905176021    -0.1047142578
   27      H      -0.3540036304     5.1005323996    -0.1869232398
   28      H      -2.7122102829     4.4433213523    -0.2224609950
   29      H      -3.3746982271     2.0704838153    -0.1514159658
   30      H      -2.0613149951    -1.9723224826    -1.6377985668
   31      H      -4.1518173770    -3.2787278363    -1.5905405235
   32      H      -5.9096818199    -2.7397339377     0.0543574482
   33      H      -5.5620029666    -0.9055077907     1.6671929600
   34      H      -3.4530973498     0.3718277300     1.6499896844
   35      H      -0.4601501129    -2.6442162639     0.1348918066
   36      H       1.9479497210    -3.1109527130     0.1704723285
 ----------------------------------------------------------------

    9   -1024.3867493375      4.81e-06  Convergence criterion met
 Total energy in the final basis set =    -1024.3867493375

                    Orbital Energies (a.u.)
 --------------------------------------------------------------

 Alpha MOs
 -- Occupied --
-24.7369 -24.7257 -14.3846 -10.3467 -10.2389 -10.2228 -10.2219 -10.1996
-10.1995 -10.1988 -10.1987 -10.1968 -10.1963 -10.1958 -10.1882 -10.1875
-10.1864 -10.1857 -10.1854 -10.1850 -10.1846 -10.1844 -10.1783  -1.2765
 -1.2159  -1.0043  -0.8788  -0.8570  -0.8476  -0.8065  -0.7841  -0.7630
 -0.7590  -0.7462  -0.7205  -0.7161  -0.6591  -0.6359  -0.6236  -0.6216
 -0.6016  -0.5827  -0.5807  -0.5619  -0.5454  -0.5257  -0.5216  -0.5106
 -0.5090  -0.4838  -0.4749  -0.4654  -0.4534  -0.4473  -0.4406  -0.4372
 -0.4357  -0.4332  -0.4326  -0.4231  -0.4165  -0.4119  -0.4036  -0.3817
 -0.3790  -0.3709  -0.3655  -0.3614  -0.3595  -0.3418  -0.3345  -0.3344
 -0.2932  -0.2763  -0.2649  -0.2617  -0.2374  -0.2127  -0.1907

          Ground-State Mulliken Net Atomic Charges

     Atom                 Charge (a.u.)
  ----------------------------------------
      1 F                    -0.254493
      2 C                     0.538655
      3 F                    -0.239093
      4 C                    -0.301819
      5 C                     0.185427
      6 C                    -0.271186
      7 C                     0.063276
      8 C                     0.059340
      9 C                    -0.193572
     10 C                    -0.145677
     11 C                    -0.138585
     12 C                    -0.176673
     13 C                     0.310655
     14 N                    -0.733548
     15 C                     0.277489
     16 C                    -0.154870
     17 C                    -0.140820
     18 C                    -0.120779
     19 C                    -0.140749
     20 C                    -0.154330
     21 C                     0.318430
     22 C                    -0.175024
     23 C                    -0.209653
     24 H                     0.155220
     25 H                     0.141065
     26 H                     0.132550
     27 H                     0.123093
     28 H                     0.125863
     29 H                     0.139572
     30 H                     0.152169
     31 H                     0.137446
     32 H                     0.133540
     33 H                     0.137590
     34 H                     0.152889
     35 H                     0.141480
     36 H                     0.125124
  ----------------------------------------
  Sum of atomic charges =     0.000000

                    Cartesian Multipole Moments
 -----------------------------------------------------------------
    Charge (ESU x 10^10)
                 0.0000
    Dipole Moment (Debye)
         X      -2.9720      Y      -1.2497      Z       0.0359
       Tot       3.2242
    Quadrupole Moments (Debye-Ang)
        XX    -123.4254     XY       2.8197     YY    -117.7284
        XZ      -1.7411     YZ       2.4097     ZZ    -130.5989

 Total job time:  105.84s(wall), 105.33s(cpu)
        *  Thank you very much for using Q-Chem.  Have a nice day.  *
