 Q-Chem 5.4, Q-Chem, Inc., Pleasanton, CA (2021)
 Q-Chem 5.4.2 for Intel X86 EM64T Linux

User input:
--------------------------------------------------------------
$molecule
0 1
C            1.59538688110000        2.90172683750000        1.39475583200000
C            0.89857503700000        2.71737696340000        0.28630803280000
C           -0.15484382060000        1.70024994290000        0.11794095750000
C           -1.44592878740000        2.13582646730000       -0.16135691320000
C           -2.49266944250000        1.24630988370000       -0.30888940600000
C           -2.24474016140000       -0.10753551690000       -0.17740329310000
F           -3.25442596980000       -0.98436319980000       -0.29199395200000
C           -0.95823185850000       -0.56437047870000        0.07203921650000
F           -0.75224656940000       -1.88142460180000        0.22742541530000
C            0.10848198160000        0.32492566350000        0.20951904450000
C            1.46870996060000       -0.17465734120000        0.41859759780000
C            1.99957109300000       -1.21059341810000       -0.21170898570000
F            1.44405835790000       -1.94453330820000       -1.15855659020000
F            3.24245576700000       -1.62856855220000       -0.00076713960000
H            2.32890734730000        3.68491004660000        1.47740226810000
H            1.44508968770000        2.29285159320000        2.27126961500000
H            1.03754150780000        3.37661653570000       -0.56134949610000
H           -1.63142493420000        3.19528140580000       -0.25008472980000
H           -3.49568920250000        1.58221497130000       -0.51597208690000
H            2.10727080530000        0.35253011410000        1.10719163440000
$end

$rem
BASIS = 6-31G*
GUI = 2
METHOD = B3LYP
PRINT_ORBITALS false
MOLDEN_FORMAT false
$end
--------------------------------------------------------------

             Standard Nuclear Orientation (Angstroms)
    I     Atom           X                Y                Z
 ----------------------------------------------------------------
    1      C      -0.6465352172     3.3804687750    -0.6366309757
    2      C      -0.0194361921     2.7550780336     0.3451130740
    3      C       0.6588334244     1.4532909064     0.2113717562
    4      C       2.0274685118     1.4009402894     0.4537186380
    5      C       2.7395663704     0.2239983478     0.3256721853
    6      C       2.0704825042    -0.9262032851    -0.0498512872
    7      F       2.7507487372    -2.0728727172    -0.2041571587
    8      C       0.7001008299    -0.9014526722    -0.2677155464
    9      F       0.0819325848    -2.0251966362    -0.6630304806
   10      C      -0.0307642820     0.2792119629    -0.1280947888
   11      C      -1.4836930670     0.2781293416    -0.3084110347
   12      C      -2.3021737540    -0.6566016389     0.1483502221
   13      F      -1.9876984275    -1.7129169841     0.8757330015
   14      F      -3.6179562773    -0.6175698835    -0.0281571756
   15      H      -1.0941745904     4.3488532150    -0.4948240124
   16      H      -0.7181198710     2.9609068997    -1.6268017647
   17      H       0.0782611899     3.2241273340     1.3161330302
   18      H       2.5426607784     2.3067250546     0.7345337022
   19      H       3.8018143579     0.1831781015     0.5037929985
   20      H      -1.9367761892     1.1120550212    -0.8174610892
 ----------------------------------------------------------------

    9    -783.9636692960      3.62e-06  Convergence criterion met
 Total energy in the final basis set =     -783.9636692960

                    Orbital Energies (a.u.)
 --------------------------------------------------------------

 Alpha MOs
 -- Occupied --
-24.7408 -24.7362 -24.7163 -24.7146 -10.3597 -10.2820 -10.2810 -10.2220
-10.2110 -10.2049 -10.2041 -10.2032 -10.2023 -10.1927  -1.2870  -1.2357
 -1.2260  -1.2212  -0.8880  -0.8174  -0.8028  -0.7532  -0.7392  -0.6612
 -0.6363  -0.6220  -0.5887  -0.5730  -0.5592  -0.5412  -0.5264  -0.5180
 -0.4980  -0.4845  -0.4805  -0.4612  -0.4522  -0.4446  -0.4393  -0.4374
 -0.4298  -0.4154  -0.4089  -0.3992  -0.3693  -0.3625  -0.3512  -0.2974
 -0.2834  -0.2424  -0.2343

          Ground-State Mulliken Net Atomic Charges

     Atom                 Charge (a.u.)
  ----------------------------------------
      1 C                    -0.324874
      2 C                    -0.141068
      3 C                     0.077250
      4 C                    -0.176236
      5 C                    -0.199868
      6 C                     0.325896
      7 F                    -0.282843
      8 C                     0.253138
      9 F                    -0.277687
     10 C                     0.038198
     11 C                    -0.314243
     12 C                     0.575460
     13 F                    -0.228200
     14 F                    -0.244117
     15 H                     0.150488
     16 H                     0.151414
     17 H                     0.149408
     18 H                     0.140349
     19 H                     0.154126
     20 H                     0.173410
  ----------------------------------------
  Sum of atomic charges =     0.000000

                    Cartesian Multipole Moments
 -----------------------------------------------------------------
    Charge (ESU x 10^10)
                 0.0000
    Dipole Moment (Debye)
         X       0.5466      Y       2.9368      Z       0.2564
       Tot       2.9982
    Quadrupole Moments (Debye-Ang)
        XX     -74.9016     XY       0.7387     YY     -74.7820
        XZ       2.6938     YZ       0.2549     ZZ     -74.9436

 Total job time:  54.74s(wall), 51.42s(cpu)
        *  Thank you very much for using Q-Chem.  Have a nice day.  *
