 Q-Chem 5.2, Q-Chem, Inc., Pleasanton, CA (2019)
 Q-Chem 5.2.1 for Intel X86 EM64T Linux

User input:
--------------------------------------------------------------
$molecule
0 1
C         3.66682168190000    0.01075783190000    0.28694911950000
C         2.47532331830000    0.48456238220000   -0.05672213960000
C         1.22894824300000   -0.27409158080000   -0.06030170110000
C         1.20197182640000   -1.66641416520000   -0.07142085690000
C        -0.00007749750000   -2.35014089520000   -0.07944320850000
C        -1.20206641180000   -1.66632547010000   -0.07138632440000
C        -1.22896712230000   -0.27400180290000   -0.06020137900000
C        -2.47530277980000    0.48474441130000   -0.05651046530000
C        -3.66695638790000    0.01092382180000    0.28682295320000
C         0.00001866850000    0.41241031470000   -0.06679321070000
C         0.00004172000000    1.82546598020000   -0.05644842550000
N         0.00025865590000    2.97346754050000   -0.05236917220000
H         4.54133482110000    0.63761785040000    0.26980525630000
H         3.81968044620000   -1.00481184280000    0.61147694210000
H         2.38052313050000    1.52551140230000   -0.33932410240000
H         2.12921751010000   -2.21672471180000   -0.09550647050000
H        -0.00012875900000   -3.43015732600000   -0.09946033150000
H        -2.12934274780000   -2.21658018140000   -0.09554262890000
H        -2.38038994940000    1.52581302730000   -0.33880123780000
H        -3.82006408550000   -1.00470317740000    0.61078284390000
H        -4.54150833990000    0.63771634380000    0.26935369460000
$end

$rem
BASIS = 6-31G*
GUI = 2
METHOD = B3LYP
PRINT_ORBITALS false
MOLDEN_FORMAT false
--------------------------------------------------------------

             Standard Nuclear Orientation (Angstroms)
    I     Atom           X                Y                Z
 ----------------------------------------------------------------
    1      C       3.6668269542     0.0433569950     0.2822709047
    2      C       2.4753261129     0.5182286105    -0.0599157853
    3      C       1.2289525229    -0.2404129845    -0.0658556247
    4      C       1.2019788117    -1.6326941771    -0.0813165827
    5      C      -0.0000691951    -2.3163949601    -0.0914657273
    6      C      -1.2020594265    -1.6326103810    -0.0812710157
    7      C      -1.2289628421    -0.2403284181    -0.0657440240
    8      C      -2.4752999845     0.5184001127    -0.0596813904
    9      C      -3.6669511164     0.0435087625     0.2821780752
   10      C       0.0000215608     0.4461033677    -0.0702007377
   11      C       0.0000418624     1.8591199018    -0.0554493695
   12      N       0.0002565448     3.0071031591    -0.0477900784
   13      H       4.5413387761     0.6702691715     0.2670780830
   14      H       3.8196891824    -0.9732194812     0.6036293973
   15      H       2.3805225988     1.5600536780    -0.3392697360
   16      H       2.1292254765    -2.1829250886    -0.1071223796
   17      H      -0.0001184091    -3.3963437157    -0.1148507988
   18      H      -2.1293347818    -2.1827889328    -0.1071390301
   19      H      -2.3803904793     1.5603441832    -0.3387246283
   20      H      -3.8200553525    -0.9731238766     0.6029698291
   21      H      -4.5415043870     0.6703509719     0.2666674762
 ----------------------------------------------------------------

    9    -479.2866283595      3.59e-06  Convergence criterion met
 Total energy in the final basis set =     -479.2866283595

                    Orbital Energies (a.u.)
 --------------------------------------------------------------

 Alpha MOs
 -- Occupied --
-14.3311 -10.2323 -10.2232 -10.2226 -10.2225 -10.2104 -10.2060 -10.2060
-10.2015 -10.2015 -10.1943 -10.1943  -0.9165  -0.8868  -0.8238  -0.7991
 -0.7693  -0.7358  -0.6575  -0.6558  -0.6046  -0.5571  -0.5503  -0.5086
 -0.4972  -0.4656  -0.4640  -0.4409  -0.4241  -0.4146  -0.4061  -0.3806
 -0.3727  -0.3654  -0.3526  -0.3509  -0.3317  -0.3259  -0.2967  -0.2506
 -0.2361

          Ground-State Mulliken Net Atomic Charges

     Atom                 Charge (a.u.)
  ----------------------------------------
      1 C                    -0.341825
      2 C                    -0.123001
      3 C                     0.179893
      4 C                    -0.208032
      5 C                    -0.105863
      6 C                    -0.208035
      7 C                     0.179889
      8 C                    -0.123032
      9 C                    -0.341826
     10 C                     0.028551
     11 C                     0.206477
     12 N                    -0.499082
     13 H                     0.156174
     14 H                     0.147636
     15 H                     0.163212
     16 H                     0.140072
     17 H                     0.141693
     18 H                     0.140067
     19 H                     0.163209
     20 H                     0.147645
     21 H                     0.156177
  ----------------------------------------
  Sum of atomic charges =     0.000000

                    Cartesian Multipole Moments
 -----------------------------------------------------------------
    Charge (ESU x 10^10)
                 0.0000
    Dipole Moment (Debye)
         X      -0.0004      Y      -4.1634      Z       0.0161
       Tot       4.1634
    Quadrupole Moments (Debye-Ang)
        XX     -57.6173     XY      -0.0004     YY     -75.0171
        XZ       0.0018     YZ      -0.9344     ZZ     -72.5390

 Total job time:  27.00s(wall), 26.91s(cpu)
        *  Thank you very much for using Q-Chem.  Have a nice day.  *
