 Q-Chem 5.2, Q-Chem, Inc., Pleasanton, CA (2019)
 Q-Chem 5.2.1 for Intel X86 EM64T Linux

User input:
--------------------------------------------------------------
$molecule
0 1
C        -3.19452470200000    1.06407672060000   -0.00154993260000
C        -2.64104023760000   -0.14498062030000    0.00161567890000
C        -1.22819281520000   -0.40244579440000    0.00084124620000
C        -0.60555805230000   -1.62906009140000    0.00058030520000
N         0.73364435210000   -1.61301005080000   -0.00056160690000
C         1.21742812630000   -0.41230107610000   -0.00084043890000
C         2.62103317650000   -0.11347945440000   -0.00155649320000
C         3.13351235270000    1.11359083870000    0.00189197170000
S        -0.01916411600000    0.84390024320000   -0.00018459830000
H        -4.26182849470000    1.19669510810000   -0.00089644000000
H        -2.59248590090000    1.95789589340000   -0.00514713150000
H        -3.25822537240000   -1.03454304230000    0.00484175470000
H        -1.11685944500000   -2.57541738770000    0.00106190430000
H         3.25474641330000   -0.98958547740000   -0.00484268340000
H         2.50317205710000    1.98808333860000    0.00560861710000
H         4.19580041320000    1.28093189430000    0.00134404290000
$end

$rem
BASIS = 6-31G*
GUI = 2
METHOD = B3LYP
PRINT_ORBITALS false
MOLDEN_FORMAT false
--------------------------------------------------------------

             Standard Nuclear Orientation (Angstroms)
    I     Atom           X                Y                Z
 ----------------------------------------------------------------
    1      C       3.1779465640    -1.0751330925    -0.0015333687
    2      C       2.6333635715     0.1379597124     0.0016190851
    3      C       1.2224466805     0.4058023215     0.0008328866
    4      C       0.6088443241     1.6369598347     0.0005581738
    5      N      -0.7304398660     1.6307533251    -0.0005928845
    6      C      -1.2230357535     0.4336325806    -0.0008658031
    7      C      -2.6287992173     0.1451354892    -0.0015892680
    8      C      -3.1502835124    -1.0781349222     0.0018651150
    9      S       0.0042900318    -0.8316237258    -0.0001917126
   10      H       4.2442467807    -1.2155925506    -0.0008714652
   11      H       2.5693544995    -1.9645031788    -0.0051278400
   12      H       3.2570702761     1.0229618348     0.0048425710
   13      H       1.1270876065     2.5795335190     0.0010360120
   14      H      -3.2560559552     1.0258755992    -0.0048866030
   15      H      -2.5263877681    -1.9572367584     0.0055928694
   16      H      -4.2137728280    -1.2376636696     0.0013111239
 ----------------------------------------------------------------

    9    -723.8510583605      8.90e-06  Convergence criterion met
 Total energy in the final basis set =     -723.8510583605

                    Orbital Energies (a.u.)
 --------------------------------------------------------------

 Alpha MOs
 -- Occupied --
-88.9101 -14.3325 -10.2534 -10.2266 -10.2184 -10.2059 -10.2042 -10.1953
-10.1897  -7.9725  -5.9362  -5.9329  -5.9295  -0.9746  -0.8293  -0.8083
 -0.7630  -0.7265  -0.6463  -0.5998  -0.5589  -0.5424  -0.5045  -0.4759
 -0.4414  -0.4375  -0.4239  -0.4147  -0.3937  -0.3668  -0.3536  -0.3360
 -0.2940  -0.2720  -0.2700  -0.2143

          Ground-State Mulliken Net Atomic Charges

     Atom                 Charge (a.u.)
  ----------------------------------------
      1 C                    -0.367200
      2 C                    -0.060139
      3 C                    -0.148409
      4 C                     0.024540
      5 N                    -0.425494
      6 C                     0.086548
      7 C                    -0.067982
      8 C                    -0.355812
      9 S                     0.229226
     10 H                     0.150931
     11 H                     0.157946
     12 H                     0.144246
     13 H                     0.151020
     14 H                     0.162457
     15 H                     0.161148
     16 H                     0.156976
  ----------------------------------------
  Sum of atomic charges =     0.000000

                    Cartesian Multipole Moments
 -----------------------------------------------------------------
    Charge (ESU x 10^10)
                 0.0000
    Dipole Moment (Debye)
         X       0.5827      Y      -0.9029      Z       0.0010
       Tot       1.0746
    Quadrupole Moments (Debye-Ang)
        XX     -49.8334     XY       3.6523     YY     -58.2288
        XZ       0.0083     YZ       0.0023     ZZ     -63.1252

 Total job time:  15.49s(wall), 14.63s(cpu)
        *  Thank you very much for using Q-Chem.  Have a nice day.  *
