 Q-Chem 5.2, Q-Chem, Inc., Pleasanton, CA (2019)
 Q-Chem 5.2.1 for Intel X86 EM64T Linux

User input:
--------------------------------------------------------------
$molecule
0 1
C         3.46802971460000    1.75509440890000    0.40251190340000
C         2.33066824050000    1.74659662250000   -0.27929603510000
C         1.27860965560000    0.74979738990000   -0.16970769250000
C        -0.08566432080000    1.07984849190000   -0.24173958520000
C        -0.81403109540000   -0.06986754790000    0.00323282640000
C        -2.23955783150000   -0.33749652430000    0.06598914060000
O        -2.70385585280000   -1.43347274820000    0.30245519910000
O        -2.97367405980000    0.76255477570000   -0.17197259980000
C        -4.38595937060000    0.62294699090000   -0.13339894010000
N         0.07751336700000   -1.08033957940000    0.21177904370000
C         1.35103683940000   -0.62602395950000    0.09929284900000
C         2.44026222710000   -1.57031579620000    0.18649730400000
C         3.65849200820000   -1.42165528090000   -0.32338586210000
H         4.18065658200000    2.55527268540000    0.29784613710000
H         3.72311316510000    0.97012014040000    1.09389765590000
H         2.08951498980000    2.57737477550000   -0.93161407790000
H        -0.49545816120000    2.05194435550000   -0.42923773360000
H        -4.79045174450000    1.04237089450000   -1.05424545330000
H        -4.77072357290000    1.17479864160000    0.72564000520000
H        -4.65314033130000   -0.43218496870000   -0.04648597280000
H        -0.20380461230000   -2.03375737200000    0.38222072470000
H         2.17957289370000   -2.50107764950000    0.67872337560000
H         3.94956047870000   -0.53043306510000   -0.85022551000000
H         4.39857380030000   -2.19761359530000   -0.23325165030000
$end

$rem
BASIS = 6-31G*
GUI = 2
METHOD = B3LYP
PRINT_ORBITALS false
MOLDEN_FORMAT false
--------------------------------------------------------------

             Standard Nuclear Orientation (Angstroms)
    I     Atom           X                Y                Z
 ----------------------------------------------------------------
    1      C       3.4431252946     1.7009077690     0.5219437220
    2      C       2.3032607731     1.7455058541    -0.1542554228
    3      C       1.2500082285     0.7446708822    -0.1163869978
    4      C      -0.1139876896     1.0810348828    -0.1581027093
    5      C      -0.8433009636    -0.0829469586     0.0019755029
    6      C      -2.2690169602    -0.3526630109     0.0496960192
    7      O      -2.7342082934    -1.4627662072     0.2043590391
    8      O      -3.0022292021     0.7632074687    -0.1016253942
    9      C      -4.4145864950     0.6229571226    -0.0683871973
   10      N       0.0473746025    -1.1074791924     0.1301453800
   11      C       1.3212067194    -0.6476486761     0.0475288225
   12      C       2.4092234632    -1.5972762090     0.0589633790
   13      C       3.6258142356    -1.4120986426    -0.4428142141
   14      H       4.1566504918     2.5057633075     0.4753969260
   15      H       3.6994771633     0.8655573878     1.1510223242
   16      H       2.0610558602     2.6235559209    -0.7409673786
   17      H      -0.5229011134     2.0650696437    -0.2700058666
   18      H      -4.8217751636     1.1113556009    -0.9533465788
   19      H      -4.7953116742     1.1087737787     0.8313695254
   20      H      -4.6831446596    -0.4353704935    -0.0605036136
   21      H      -0.2348507063    -2.0706821110     0.2290628813
   22      H       2.1488422688    -2.5622504501     0.4803769635
   23      H       3.9163838583    -0.4839734448    -0.9018466951
   24      H       4.3649717853    -2.1936329666    -0.4144107323
 ----------------------------------------------------------------

    9    -592.8491635921      5.72e-06  Convergence criterion met
 Total energy in the final basis set =     -592.8491635921

                    Orbital Energies (a.u.)
 --------------------------------------------------------------

 Alpha MOs
 -- Occupied --
-19.1883 -19.1284 -14.3900 -10.3130 -10.2343 -10.2274 -10.2172 -10.2012
-10.1887 -10.1861 -10.1836 -10.1828 -10.1729  -1.1025  -1.0155  -0.9946
 -0.8141  -0.8010  -0.7607  -0.7444  -0.7086  -0.6304  -0.6192  -0.6036
 -0.5620  -0.5429  -0.5212  -0.4894  -0.4817  -0.4692  -0.4610  -0.4452
 -0.4333  -0.4325  -0.4185  -0.4106  -0.3942  -0.3894  -0.3638  -0.3566
 -0.3468  -0.2990  -0.2958  -0.2932  -0.2761  -0.2377  -0.1996

          Ground-State Mulliken Net Atomic Charges

     Atom                 Charge (a.u.)
  ----------------------------------------
      1 C                    -0.344493
      2 C                    -0.128358
      3 C                     0.030085
      4 C                    -0.234423
      5 C                     0.295146
      6 C                     0.564594
      7 O                    -0.516727
      8 O                    -0.458254
      9 C                    -0.234853
     10 N                    -0.687890
     11 C                     0.326257
     12 C                    -0.133006
     13 C                    -0.341039
     14 H                     0.138360
     15 H                     0.150977
     16 H                     0.130413
     17 H                     0.145892
     18 H                     0.162631
     19 H                     0.162051
     20 H                     0.191788
     21 H                     0.344446
     22 H                     0.127777
     23 H                     0.164274
     24 H                     0.144353
  ----------------------------------------
  Sum of atomic charges =     0.000000

                    Cartesian Multipole Moments
 -----------------------------------------------------------------
    Charge (ESU x 10^10)
                 0.0000
    Dipole Moment (Debye)
         X       0.3648      Y       0.2339      Z      -0.1619
       Tot       0.4626
    Quadrupole Moments (Debye-Ang)
        XX     -66.4786     XY      -6.8881     YY     -71.3908
        XZ       0.7894     YZ      -1.7000     ZZ     -77.0520

 Total job time:  30.77s(wall), 30.66s(cpu)
        *  Thank you very much for using Q-Chem.  Have a nice day.  *
