 Q-Chem 5.2, Q-Chem, Inc., Pleasanton, CA (2019)
 Q-Chem 5.2.1 for Intel X86 EM64T Linux

User input:
--------------------------------------------------------------
$molecule
0 1
C         5.42217885890000   -1.41588966030000   -0.02513458510000
C         4.84632173740000   -0.21951048650000    0.01033152630000
C         3.41813786540000    0.06829145170000    0.00540486690000
C         3.01274342850000    1.41457103840000   -0.00340923000000
C         1.68587441510000    1.78290964770000   -0.00876753630000
C         0.71656397630000    0.78667782650000   -0.00338420270000
C         1.11976993820000   -0.57103889940000    0.00675896250000
C         2.45274747570000   -0.93623237330000    0.01103247750000
N         0.00000412040000   -1.36528925180000    0.01277421320000
C        -1.11977526490000   -0.57105717430000    0.00741086510000
C        -2.45275011200000   -0.93626913580000    0.01244953520000
C        -3.41814075780000    0.06825075500000    0.00744496010000
C        -4.84630162860000   -0.21961148380000    0.01284523960000
C        -5.42211091870000   -1.41577333500000   -0.03057998250000
C        -3.01277631750000    1.41453517340000   -0.00128339830000
C        -1.68591070510000    1.78288398610000   -0.00777052210000
C        -0.71659198950000    0.78666241630000   -0.00310769880000
H         6.49356716870000   -1.52081993630000   -0.01828335970000
H         4.86231290800000   -2.33441746800000   -0.06398724740000
H         5.47930008570000    0.65915411840000    0.04394822540000
H         3.77467615030000    2.18103524430000   -0.00714833830000
H         1.40123383030000    2.82434835070000   -0.01639071580000
H         2.73249909780000   -1.97816173620000    0.02174507530000
H         0.00001823790000   -2.37048274030000    0.02159464630000
H        -2.73251139440000   -1.97820312950000    0.02360172490000
H        -5.47924122980000    0.65881320320000    0.05350079700000
H        -4.86221966540000   -2.33392031380000   -0.07773564390000
H        -6.49344574160000   -1.52088422150000   -0.02261248010000
H        -3.77472524280000    2.18097915830000   -0.00438495570000
H        -1.40128314760000    2.82434100250000   -0.01507657550000
$end

$rem
BASIS = 6-31G*
GUI = 2
METHOD = B3LYP
PRINT_ORBITALS false
MOLDEN_FORMAT false
--------------------------------------------------------------

             Standard Nuclear Orientation (Angstroms)
    I     Atom           X                Y                Z
 ----------------------------------------------------------------
    1      C       5.4221781078    -1.4042744942    -0.0241336477
    2      C       4.8463211089    -0.2078755771     0.0106621149
    3      C       3.4181371314     0.0799232605     0.0055871393
    4      C       3.0127423436     1.4261975742    -0.0039837246
    5      C       1.6858732047     1.7945328453    -0.0095368782
    6      C       0.7165630142     0.7983040420    -0.0035808084
    7      C       1.1197693426    -0.5594066584     0.0073256091
    8      C       2.4527469941    -0.9245974065     0.0117921328
    9      N       0.0000037401    -1.3536536965     0.0138009578
   10      C      -1.1197758538    -0.5594249889     0.0079999949
   11      C      -2.4527505791    -0.9246342969     0.0132584360
   12      C      -3.4181414709     0.0798824225     0.0076958548
   13      C      -4.8463022314    -0.2079769888     0.0132731469
   14      C      -5.4221117239    -1.4041632993    -0.0294702914
   15      C      -3.0127773808     1.4261617699    -0.0017974090
   16      C      -1.6859119053     1.7945071088    -0.0085060150
   17      C      -0.7165929487     0.7982885168    -0.0032899147
   18      H       6.4935665067    -1.5092006787    -0.0172338741
   19      H       4.8623119461    -2.3228242184    -0.0624615890
   20      H       5.4792996232     0.6708080054     0.0437758885
   21      H       3.7746748784     2.1926596889    -0.0081636376
   22      H       1.4012323403     2.8359670200    -0.0177457589
   23      H       2.7324989269    -1.9665204959     0.0230907576
   24      H       0.0000181421    -2.3588420397     0.0231894644
   25      H      -2.7325115464    -1.9665618746     0.0250022697
   26      H      -5.4792415958     0.6704704142     0.0534386163
   27      H      -4.8622207648    -2.3223366751    -0.0761126820
   28      H      -6.4934464463    -1.5092698691    -0.0214326374
   29      H      -3.7747264866     2.1926037353    -0.0053244681
   30      H      -1.4012846242     2.8359598839    -0.0164034923
 ----------------------------------------------------------------

    8    -672.2673032941      9.83e-06  Convergence criterion met
 Total energy in the final basis set =     -672.2673032941

                    Orbital Energies (a.u.)
 --------------------------------------------------------------

 Alpha MOs
 -- Occupied --
-14.3759 -10.2236 -10.2236 -10.1924 -10.1924 -10.1869 -10.1869 -10.1859
-10.1859 -10.1853 -10.1853 -10.1852 -10.1848 -10.1785 -10.1785 -10.1761
-10.1761  -0.9881  -0.8559  -0.8515  -0.8031  -0.7810  -0.7542  -0.7461
 -0.7286  -0.7037  -0.6595  -0.6123  -0.6117  -0.5966  -0.5613  -0.5528
 -0.5414  -0.5089  -0.4994  -0.4658  -0.4574  -0.4543  -0.4470  -0.4370
 -0.4346  -0.4320  -0.4087  -0.4079  -0.3880  -0.3697  -0.3670  -0.3528
 -0.3471  -0.3435  -0.3383  -0.3371  -0.3079  -0.2845  -0.2542  -0.2388
 -0.2043  -0.1953

          Ground-State Mulliken Net Atomic Charges

     Atom                 Charge (a.u.)
  ----------------------------------------
      1 C                    -0.352775
      2 C                    -0.119682
      3 C                     0.181570
      4 C                    -0.224644
      5 C                    -0.187994
      6 C                     0.070571
      7 C                     0.357846
      8 C                    -0.252190
      9 N                    -0.824852
     10 C                     0.357850
     11 C                    -0.252189
     12 C                     0.181538
     13 C                    -0.119713
     14 C                    -0.352748
     15 C                    -0.224619
     16 C                    -0.187996
     17 C                     0.070554
     18 H                     0.142300
     19 H                     0.137143
     20 H                     0.126312
     21 H                     0.121902
     22 H                     0.130593
     23 H                     0.120170
     24 H                     0.322603
     25 H                     0.120181
     26 H                     0.126328
     27 H                     0.137148
     28 H                     0.142301
     29 H                     0.121897
     30 H                     0.130594
  ----------------------------------------
  Sum of atomic charges =     0.000000

                    Cartesian Multipole Moments
 -----------------------------------------------------------------
    Charge (ESU x 10^10)
                 0.0000
    Dipole Moment (Debye)
         X      -0.0003      Y      -1.3239      Z       0.0221
       Tot       1.3241
    Quadrupole Moments (Debye-Ang)
        XX     -93.6950     XY       0.0005     YY     -83.4379
        XZ      -0.0087     YZ       0.0410     ZZ    -105.0771

 Total job time:  54.60s(wall), 54.43s(cpu)
        *  Thank you very much for using Q-Chem.  Have a nice day.  *
