 Q-Chem 5.2, Q-Chem, Inc., Pleasanton, CA (2019)
 Q-Chem 5.2.1 for Intel X86 EM64T Linux

User input:
--------------------------------------------------------------
$molecule
0 1
C         3.59238345790000   -1.04184484710000    0.45529681990000
C         2.86415106210000   -0.08451254270000   -0.10417378200000
C         1.40425026610000   -0.02805001050000   -0.09509129760000
C         0.65318603770000   -1.20164671700000   -0.09720148590000
C        -0.72998452510000   -1.20138064330000   -0.10074062460000
C        -1.47833797960000   -2.50166895930000   -0.09273152570000
C        -1.40430621780000    0.02787148720000   -0.09455862020000
C        -2.86418908350000    0.08427277030000   -0.10306994030000
C        -3.59243551920000    1.04287850200000    0.45422497850000
C        -0.65319436460000    1.20146701460000   -0.09681858170000
C         0.72995920400000    1.20119740230000   -0.10086156090000
C         1.47848684390000    2.50136819340000   -0.09260873600000
H         4.66827734120000   -1.03260939010000    0.41041046030000
H         3.14733395480000   -1.86088170090000    0.99518633950000
H         3.36518428040000    0.73501087970000   -0.60262389470000
H         1.17462054610000   -2.14792494670000   -0.11715516110000
H        -0.78857697400000   -3.33748432750000   -0.00354442810000
H        -2.04514395890000   -2.62562498420000   -1.01588215430000
H        -2.17871235390000   -2.53893249760000    0.74040850360000
H        -3.36538488030000   -0.73649941800000   -0.59926219530000
H        -3.14750683030000    1.86337750090000    0.99195044620000
H        -4.66833734650000    1.03338478610000    0.40951783800000
H        -1.17453989450000    2.14779223070000   -0.11633395440000
H         0.78880365490000    3.33734879710000   -0.00443259990000
H         2.04633792360000    2.62486916420000   -1.01516263880000
H         2.17801179100000    2.53875008750000    0.74125418130000
$end

$rem
BASIS = 6-31G*
GUI = 2
METHOD = B3LYP
PRINT_ORBITALS false
MOLDEN_FORMAT false
--------------------------------------------------------------

             Standard Nuclear Orientation (Angstroms)
    I     Atom           X                Y                Z
 ----------------------------------------------------------------
    1      C       3.5795943518    -1.0849758830     0.4505763972
    2      C       2.8629251192    -0.1189519474    -0.1088857415
    3      C       1.4038089095    -0.0449374948    -0.0997978169
    4      C       0.6386858772    -1.2094173918    -0.1019126480
    5      C      -0.7443814822    -1.1925179762    -0.1054469617
    6      C      -1.5083174340    -2.4837129832    -0.0974432990
    7      C      -1.4038720035     0.0447542957    -0.0992549996
    8      C      -2.8629710809     0.1187073976    -0.1077608799
    9      C      -3.5796352278     1.0859978807     0.4495425099
   10      C      -0.6387013789     1.2092324682    -0.1015103185
   11      C       0.7443489190     1.1923297658    -0.1055581226
   12      C       1.5084576858     2.4834050604    -0.0972998628
   13      H       4.6555213461    -1.0886789929     0.4056863430
   14      H       3.1247295318    -1.8986049263     0.9904624008
   15      H       3.3737755990     0.6944901381    -0.6073325304
   16      H       1.1487031294    -2.1618975915    -0.1218739968
   17      H      -0.8286571108    -3.3277632016    -0.0082637785
   18      H      -2.0765762134    -2.6008381603    -1.0205927181
   19      H      -2.2090864350    -2.5125566539     0.7356989420
   20      H      -3.3740025386    -0.6959752126    -0.6039564659
   21      H      -3.1248699528     1.9010837035     0.9872715031
   22      H      -4.6555735769     1.0894434039     0.4048390625
   23      H      -1.1486292287     2.1617588266    -0.1210180176
   24      H       0.8288777659     3.3276184617    -0.0091161489
   25      H       2.0777497193     2.6000741457    -1.0198549816
   26      H       2.2083844329     2.5123669090     0.7365608464
 ----------------------------------------------------------------

    8    -465.6765335542      3.13e-06  Convergence criterion met
 Total energy in the final basis set =     -465.6765335542

                    Orbital Energies (a.u.)
 --------------------------------------------------------------

 Alpha MOs
 -- Occupied --
-10.1868 -10.1868 -10.1859 -10.1859 -10.1850 -10.1850 -10.1776 -10.1776
-10.1767 -10.1767 -10.1762 -10.1762  -0.8660  -0.8089  -0.7785  -0.7656
 -0.7175  -0.7100  -0.6542  -0.6332  -0.5787  -0.5711  -0.5336  -0.4909
 -0.4841  -0.4516  -0.4430  -0.4349  -0.4226  -0.4187  -0.4056  -0.3988
 -0.3907  -0.3861  -0.3707  -0.3534  -0.3500  -0.3306  -0.3213  -0.3013
 -0.2642  -0.2344  -0.2073

          Ground-State Mulliken Net Atomic Charges

     Atom                 Charge (a.u.)
  ----------------------------------------
      1 C                    -0.339080
      2 C                    -0.130553
      3 C                     0.121240
      4 C                    -0.262261
      5 C                     0.129779
      6 C                    -0.536453
      7 C                     0.121403
      8 C                    -0.130490
      9 C                    -0.339149
     10 C                    -0.262334
     11 C                     0.129866
     12 C                    -0.536427
     13 H                     0.140544
     14 H                     0.143224
     15 H                     0.130442
     16 H                     0.120062
     17 H                     0.155710
     18 H                     0.161376
     19 H                     0.165906
     20 H                     0.130422
     21 H                     0.143210
     22 H                     0.140544
     23 H                     0.120042
     24 H                     0.155695
     25 H                     0.161344
     26 H                     0.165938
  ----------------------------------------
  Sum of atomic charges =     0.000000

                    Cartesian Multipole Moments
 -----------------------------------------------------------------
    Charge (ESU x 10^10)
                 0.0000
    Dipole Moment (Debye)
         X       0.0007      Y      -0.0000      Z      -0.0658
       Tot       0.0658
    Quadrupole Moments (Debye-Ang)
        XX     -67.0236     XY       1.0051     YY     -66.8404
        XZ      -0.0011     YZ      -0.0019     ZZ     -74.9715

 Total job time:  29.22s(wall), 29.12s(cpu)
        *  Thank you very much for using Q-Chem.  Have a nice day.  *
