 Q-Chem 5.2, Q-Chem, Inc., Pleasanton, CA (2019)
 Q-Chem 5.2.1 for Intel X86 EM64T Linux

User input:
--------------------------------------------------------------
$molecule
0 1
C         3.87555698220000    0.08240335060000    0.08377871610000
C         2.77859279120000    0.82580921210000   -0.02011375790000
C         1.39745289630000    0.36531019160000   -0.01269954760000
C         0.36471173840000    1.31175289650000   -0.01205344220000
F         0.67932900760000    2.61752078380000   -0.01528652600000
C        -0.97731169650000    0.96909991940000   -0.00455613430000
F        -1.86998975060000    1.96980246710000   -0.00380893220000
C        -1.39751233960000   -0.36542877780000   -0.00080859040000
C        -2.77820454610000   -0.82701127050000    0.00648153090000
C        -3.87777094860000   -0.08117262210000    0.04543554980000
C        -0.36455908730000   -1.31184573670000   -0.00791454040000
F        -0.67870510570000   -2.61773816770000   -0.00942955550000
C         0.97746527590000   -0.96915523110000   -0.01281413720000
F         1.87061521680000   -1.96938469020000   -0.02559732750000
H         4.84662978720000    0.54662852490000    0.06770554560000
H         3.86311232550000   -0.98683817420000    0.18967268140000
H         2.87675964300000    1.89914241920000   -0.11282729720000
H        -2.87431993830000   -1.90424579640000   -0.02030452210000
H        -3.86938276300000    0.99284273520000    0.07705942530000
H        -4.84753307490000   -0.54846999220000    0.04742720940000
$end

$rem
BASIS = 6-31G*
GUI = 2
METHOD = B3LYP
PRINT_ORBITALS false
MOLDEN_FORMAT false
--------------------------------------------------------------

             Standard Nuclear Orientation (Angstroms)
    I     Atom           X                Y                Z
 ----------------------------------------------------------------
    1      C       3.8764301978    -0.0212155143     0.0810660976
    2      C       2.7996862517     0.7512977104    -0.0219977165
    3      C       1.4067386618     0.3278580375    -0.0144093920
    4      C       0.3996524668     1.3015537860    -0.0128297058
    5      F       0.7490425185     2.5984518040    -0.0153550258
    6      C      -0.9510441156     0.9948729504    -0.0050979845
    7      F      -1.8166675217     2.0190670691    -0.0034301536
    8      C      -1.4067480847    -0.3279550864    -0.0020408839
    9      C      -2.7992771325    -0.7524897270     0.0054225280
   10      C      -3.8785121048     0.0224347886     0.0452075534
   11      C      -0.3994512299    -1.3016266878    -0.0100804678
   12      F      -0.7483750309    -2.5986587988    -0.0123034802
   13      C       0.9512481061    -0.9949100013    -0.0152144556
   14      F       1.8173520565    -2.0186362118    -0.0289181347
   15      H       4.8595539044     0.4169101025     0.0649579279
   16      H       3.8354566685    -1.0898095025     0.1862986872
   17      H       2.9264648657     1.8216833838    -0.1140759327
   18      H      -2.9241471129    -1.8267547186    -0.0220019309
   19      H      -3.8414224848     1.0958224933     0.0774970947
   20      H      -4.8604121419    -0.4187880570     0.0472318663
 ----------------------------------------------------------------

    9    -783.9624325782      1.85e-06  Convergence criterion met
 Total energy in the final basis set =     -783.9624325782

                    Orbital Energies (a.u.)
 --------------------------------------------------------------

 Alpha MOs
 -- Occupied --
-24.7295 -24.7294 -24.7275 -24.7275 -10.2941 -10.2940 -10.2928 -10.2928
-10.2308 -10.2307 -10.2075 -10.2075 -10.1928 -10.1927  -1.2498  -1.2491
 -1.2341  -1.2337  -0.8991  -0.8318  -0.7891  -0.7676  -0.7431  -0.6754
 -0.6461  -0.6076  -0.6036  -0.5715  -0.5554  -0.5526  -0.5314  -0.5082
 -0.5071  -0.4875  -0.4789  -0.4710  -0.4643  -0.4577  -0.4436  -0.4345
 -0.4291  -0.4199  -0.4025  -0.3871  -0.3688  -0.3647  -0.3509  -0.3365
 -0.2825  -0.2476  -0.2304

          Ground-State Mulliken Net Atomic Charges

     Atom                 Charge (a.u.)
  ----------------------------------------
      1 C                    -0.348058
      2 C                    -0.105415
      3 C                     0.024498
      4 C                     0.245669
      5 F                    -0.276457
      6 C                     0.263944
      7 F                    -0.275221
      8 C                     0.025538
      9 C                    -0.105323
     10 C                    -0.348876
     11 C                     0.245159
     12 F                    -0.276503
     13 C                     0.263985
     14 F                    -0.275255
     15 H                     0.150297
     16 H                     0.166780
     17 H                     0.154043
     18 H                     0.154035
     19 H                     0.166978
     20 H                     0.150179
  ----------------------------------------
  Sum of atomic charges =     0.000000

                    Cartesian Multipole Moments
 -----------------------------------------------------------------
    Charge (ESU x 10^10)
                 0.0000
    Dipole Moment (Debye)
         X       0.0041      Y       0.0015      Z       0.0303
       Tot       0.0306
    Quadrupole Moments (Debye-Ang)
        XX     -67.0079     XY       2.2793     YY     -80.4471
        XZ       0.0577     YZ      -0.2052     ZZ     -77.6024

 Total job time:  31.25s(wall), 30.33s(cpu)
        *  Thank you very much for using Q-Chem.  Have a nice day.  *
