 Q-Chem 5.2, Q-Chem, Inc., Pleasanton, CA (2019)
 Q-Chem 5.2.1 for Intel X86 EM64T Linux

User input:
--------------------------------------------------------------
$molecule
0 1
C        -5.23688078510000   -1.23285445430000    0.04278444610000
C        -3.91481411700000   -1.32504417650000   -0.03004621070000
C        -2.95957927340000   -0.22194748250000   -0.01686004990000
C        -3.35025096330000    1.11892048680000   -0.00562354570000
C        -2.40081279560000    2.12304613560000    0.00556288960000
C        -1.05411135740000    1.81468064270000    0.00647023490000
C        -0.62752767680000    0.48272233650000   -0.00386820060000
C         0.79828705730000    0.21542013270000   -0.00177976430000
C         1.38287458250000   -0.99313972260000    0.03188795110000
C         2.80155548250000   -1.25368567980000    0.03553574440000
C         3.79793917870000   -0.37556034690000    0.00087707490000
F         3.71450031380000    0.94940168120000   -0.04539977200000
F         5.08285349950000   -0.72829338260000    0.00831343410000
C        -1.59914832310000   -0.51785026800000   -0.01809212880000
H        -5.85973158380000   -2.11076249350000    0.02730853690000
H        -5.75443286800000   -0.29245607460000    0.12313442470000
H        -3.46368650320000   -2.30765953660000   -0.10179969750000
H        -4.39724248520000    1.37762049380000   -0.01068995290000
H        -2.71412697350000    3.15696471120000    0.01238907670000
H        -0.31940291190000    2.60673197480000    0.01525505310000
H         1.41690951520000    1.10143108740000   -0.02593591580000
H         0.77669496430000   -1.88657725930000    0.06209842450000
H         3.11076480130000   -2.28805375550000    0.07032464070000
H        -1.29959717010000   -1.55525177780000   -0.03131223470000
$end

$rem
BASIS = 6-31G*
GUI = 2
METHOD = B3LYP
PRINT_ORBITALS false
MOLDEN_FORMAT false
--------------------------------------------------------------

             Standard Nuclear Orientation (Angstroms)
    I     Atom           X                Y                Z
 ----------------------------------------------------------------
    1      C       5.0671377470     1.3580678096     0.0307874108
    2      C       3.7430246441     1.4141746934    -0.0416006590
    3      C       2.8178622260     0.2858464881    -0.0211126391
    4      C       3.2445220899    -1.0439203556    -0.0021642542
    5      C       2.3224867527    -2.0731710358     0.0157288612
    6      C       0.9679674096    -1.8011927142     0.0158053454
    7      C       0.5056491539    -0.4812941001    -0.0021648588
    8      C      -0.9268478026    -0.2524873801    -0.0006028120
    9      C      -1.5437622138     0.9400672438     0.0262875542
   10      C      -2.9689449929     1.1623217868     0.0294439143
   11      C      -3.9413303025     0.2574843768     0.0007757330
   12      F      -3.8222540836    -1.0650027029    -0.0376527042
   13      F      -5.2352763956     0.5755167611     0.0070698891
   14      C       1.4499528457     0.5449842142    -0.0230908387
   15      H       5.6661021260     2.2523261933     0.0096033963
   16      H       5.6098838547     0.4324496154     0.1163620050
   17      H       3.2655466087     2.3838345004    -0.1188807801
   18      H       4.2980998964    -1.2743500911    -0.0064714277
   19      H       2.6635452811    -3.0982155038     0.0284925139
   20      H       0.2548690541    -2.6126801845     0.0298697185
   21      H      -1.5213904235    -1.1549690202    -0.0190049372
   22      H      -0.9618544230     1.8496737278     0.0507088873
   23      H      -3.3058877520     2.1881753505     0.0582888292
   24      H       1.1225547473     1.5738427277    -0.0422794112
 ----------------------------------------------------------------

    9    -662.9167585818      6.11e-06  Convergence criterion met
 Total energy in the final basis set =     -662.9167585818

                    Orbital Energies (a.u.)
 --------------------------------------------------------------

 Alpha MOs
 -- Occupied --
-24.7452 -24.7353 -10.3568 -10.2040 -10.1992 -10.1964 -10.1959 -10.1907
-10.1900 -10.1881 -10.1871 -10.1869 -10.1866 -10.1805  -1.2856  -1.2251
 -0.8682  -0.8267  -0.7969  -0.7713  -0.7329  -0.7192  -0.6527  -0.6231
 -0.6208  -0.5866  -0.5752  -0.5503  -0.5191  -0.5169  -0.5025  -0.4784
 -0.4660  -0.4530  -0.4416  -0.4409  -0.4312  -0.4224  -0.4138  -0.4001
 -0.3839  -0.3756  -0.3665  -0.3453  -0.3369  -0.3340  -0.3015  -0.2691
 -0.2288  -0.2040

          Ground-State Mulliken Net Atomic Charges

     Atom                 Charge (a.u.)
  ----------------------------------------
      1 C                    -0.354907
      2 C                    -0.108957
      3 C                     0.184118
      4 C                    -0.183921
      5 C                    -0.129443
      6 C                    -0.197551
      7 C                     0.191702
      8 C                    -0.200504
      9 C                    -0.116817
     10 C                    -0.244618
     11 C                     0.552901
     12 F                    -0.234045
     13 F                    -0.248315
     14 C                    -0.265097
     15 H                     0.144589
     16 H                     0.143441
     17 H                     0.125744
     18 H                     0.126764
     19 H                     0.130295
     20 H                     0.129102
     21 H                     0.136296
     22 H                     0.134674
     23 H                     0.159113
     24 H                     0.125434
  ----------------------------------------
  Sum of atomic charges =     0.000000

                    Cartesian Multipole Moments
 -----------------------------------------------------------------
    Charge (ESU x 10^10)
                -0.0000
    Dipole Moment (Debye)
         X       0.7437      Y       0.5732      Z       0.0241
       Tot       0.9392
    Quadrupole Moments (Debye-Ang)
        XX     -78.6118     XY      -2.4532     YY     -70.9464
        XZ       0.0423     YZ      -0.1499     ZZ     -83.6661

 Total job time:  33.68s(wall), 33.55s(cpu)
        *  Thank you very much for using Q-Chem.  Have a nice day.  *
