 Q-Chem 5.2, Q-Chem, Inc., Pleasanton, CA (2019)
 Q-Chem 5.2.1 for Intel X86 EM64T Linux

User input:
--------------------------------------------------------------
$molecule
0 1
C        -3.64541746720000    3.12418518710000   -0.94982929200000
C        -3.67176665260000    2.03664155960000   -0.19026781600000
C        -2.54943768510000    1.13737395690000   -0.05885741230000
N        -2.61020983860000    0.00906845000000    0.70530385400000
C        -1.43343730180000   -0.54486102920000    0.58159809720000
C        -1.08163920540000   -1.83093732330000    1.14457824230000
C        -0.37949366970000   -2.76162938330000    0.51470693750000
N        -0.65133770900000    0.24061761520000   -0.24006214040000
C         0.72045323410000    0.18149151500000   -0.57811824380000
O         1.15014402040000    0.67733971770000   -1.57619356680000
O         1.37851507890000   -0.45620263690000    0.37289749630000
C         2.81737694400000   -0.66377894620000    0.27335066200000
C         3.53387375870000    0.68457616510000    0.26931111740000
C         3.15419648470000   -1.45776765210000    1.53421085270000
C         3.15057447370000   -1.47080548580000   -0.97937937890000
N        -1.38120322180000    1.29830170260000   -0.64043623450000
H        -4.49628179450000    3.77809465010000   -1.03267031630000
H        -2.76225500650000    3.38119077480000   -1.50896715080000
H        -4.54221110500000    1.74829655460000    0.38114011030000
H        -1.52420719710000   -2.02033449370000    2.11217703870000
H         0.01689708630000   -2.61010157190000   -0.47563394320000
H        -0.19000657830000   -3.71964673130000    0.96699018890000
H         3.24227081380000    1.26543092940000    1.14164088470000
H         3.28300290010000    1.24615602940000   -0.62649020140000
H         4.60809992390000    0.52596118190000    0.29579946410000
H         2.88326063680000   -0.88672704330000    2.41790601400000
H         4.21765470070000   -1.67421404560000    1.56278586490000
H         2.59887269770000   -2.39183424830000    1.54508089820000
H         2.88379029460000   -0.91525152800000   -1.87432268420000
H         2.61215970780000   -2.41610524010000   -0.97381564760000
H         4.21670144250000   -1.67752204160000   -1.00167438250000
$end

$rem
BASIS = 6-31G*
GUI = 2
METHOD = B3LYP
PRINT_ORBITALS false
MOLDEN_FORMAT false
--------------------------------------------------------------

             Standard Nuclear Orientation (Angstroms)
    I     Atom           X                Y                Z
 ----------------------------------------------------------------
    1      C       4.7273874333    -1.5211910299     0.0958652767
    2      C       4.2586382782    -0.2965069404     0.2978607406
    3      C       2.8646247337     0.0503237796     0.1495100879
    4      N       2.4107582877     1.3233810579     0.3340078604
    5      C       1.1245787817     1.2572002940     0.1142421431
    6      C       0.2467803383     2.4077910926     0.0965931895
    7      C      -0.7153694737     2.6068918636    -0.7925415284
    8      N       0.7872959905    -0.0456599377    -0.1900234568
    9      C      -0.4633057168    -0.6823160937    -0.3639559874
   10      O      -0.5797269007    -1.6919704769    -0.9914096484
   11      O      -1.3938269556    -0.0029997345     0.2816365072
   12      C      -2.7836859627    -0.4403653916     0.2636313509
   13      C      -2.9018412573    -1.8103581063     0.9274120356
   14      C      -3.5073060683     0.6275305296     1.0819260001
   15      C      -3.3100675799    -0.4729523012    -1.1693743962
   16      N       1.9069159153    -0.7924570353    -0.1689514391
   17      H       5.7718142978    -1.7542155992     0.2112013054
   18      H       4.0666886245    -2.3204936583    -0.1926747404
   19      H       4.8942725111     0.5285763416     0.5851412736
   20      H       0.4993031986     3.1615000261     0.8288091377
   21      H      -0.9389492248     1.8917021139    -1.5667360039
   22      H      -1.3055281377     3.5068416591    -0.7844265231
   23      H      -2.4733241498    -1.7796907389     1.9268200397
   24      H      -2.3781597423    -2.5625150711     0.3436434978
   25      H      -3.9489175306    -2.0893311821     1.0024287023
   26      H      -3.1024840519     0.6630962661     2.0895295740
   27      H      -4.5677128346     0.4003811983     1.1324197718
   28      H      -3.3721899079     1.6031497248     0.6226941615
   29      H      -2.7743061002    -1.2136594465    -1.7567840315
   30      H      -3.1944553920     0.5027979875    -1.6363414580
   31      H      -4.3650131023    -0.7315127016    -1.1597838033
 ----------------------------------------------------------------

    9    -742.8657750333      5.88e-06  Convergence criterion met
 Total energy in the final basis set =     -742.8657750333

                    Orbital Energies (a.u.)
 --------------------------------------------------------------

 Alpha MOs
 -- Occupied --
-19.2074 -19.1507 -14.4316 -14.3552 -14.3252 -10.3630 -10.2703 -10.2672
-10.2402 -10.2105 -10.2022 -10.1907 -10.1882 -10.1847 -10.1823 -10.1822
 -1.1414  -1.0827  -1.0448  -0.9145  -0.8664  -0.8258  -0.7898  -0.7696
 -0.7098  -0.7064  -0.6935  -0.6454  -0.6333  -0.6207  -0.5601  -0.5358
 -0.5257  -0.5092  -0.4901  -0.4859  -0.4715  -0.4679  -0.4584  -0.4491
 -0.4396  -0.4309  -0.4145  -0.4078  -0.3977  -0.3871  -0.3806  -0.3776
 -0.3651  -0.3634  -0.3523  -0.3347  -0.3250  -0.3157  -0.3122  -0.2965
 -0.2733  -0.2652  -0.2319

          Ground-State Mulliken Net Atomic Charges

     Atom                 Charge (a.u.)
  ----------------------------------------
      1 C                    -0.335548
      2 C                    -0.090915
      3 C                     0.429264
      4 N                    -0.528242
      5 C                     0.497600
      6 C                    -0.090425
      7 C                    -0.324589
      8 N                    -0.404466
      9 C                     0.797692
     10 O                    -0.443733
     11 O                    -0.480394
     12 C                     0.296802
     13 C                    -0.468253
     14 C                    -0.452206
     15 C                    -0.474899
     16 N                    -0.330123
     17 H                     0.146715
     18 H                     0.173830
     19 H                     0.147752
     20 H                     0.164320
     21 H                     0.155139
     22 H                     0.155162
     23 H                     0.154760
     24 H                     0.191231
     25 H                     0.150109
     26 H                     0.159677
     27 H                     0.152441
     28 H                     0.157510
     29 H                     0.192152
     30 H                     0.148996
     31 H                     0.152642
  ----------------------------------------
  Sum of atomic charges =     0.000000

                    Cartesian Multipole Moments
 -----------------------------------------------------------------
    Charge (ESU x 10^10)
                 0.0000
    Dipole Moment (Debye)
         X      -3.4697      Y       1.5213      Z       0.8373
       Tot       3.8800
    Quadrupole Moments (Debye-Ang)
        XX     -82.0902     XY      -3.7163     YY     -95.0603
        XZ       0.3202     YZ      -3.0794     ZZ     -94.6062

 Total job time:  56.97s(wall), 55.58s(cpu)
        *  Thank you very much for using Q-Chem.  Have a nice day.  *
