 Q-Chem 5.4, Q-Chem, Inc., Pleasanton, CA (2021)
 Q-Chem 5.4.2 for Intel X86 EM64T Linux

User input:
--------------------------------------------------------------
$molecule
0 1
C           -3.32826754070000        3.36961930350000       -0.01414968840000
C           -2.06994255610000        3.01639346450000       -0.24625762000000
C           -1.51268836160000        1.67023261450000       -0.17651727760000
C           -2.28508404600000        0.54307466480000        0.11134220430000
C           -1.73272348950000       -0.72463045850000        0.15432368810000
C           -2.55203644710000       -1.94525012040000        0.43432134870000
C           -0.36699656180000       -0.85154709370000       -0.08039592430000
F            0.16182372060000       -2.09279066170000       -0.09131587860000
C            0.44951317900000        0.24344461430000       -0.34898186630000
C            1.88623652350000        0.12106185300000       -0.58812091580000
C            2.71315517460000       -0.69480440320000        0.04530316480000
F            2.42857191590000       -1.51769346220000        1.03964600650000
F            4.01755941990000       -0.75364948350000       -0.21375884140000
C           -0.15164027910000        1.49732395900000       -0.41083607760000
H           -3.64190845540000        4.39626003520000       -0.09140940000000
H           -4.09361253310000        2.66491262080000        0.26135060790000
H           -1.35319862340000        3.78255811670000       -0.51493040830000
H           -3.34252319120000        0.64999893810000        0.29395151300000
H           -3.58847573750000       -1.68127759200000        0.62385871230000
H           -2.15424723220000       -2.47380126070000        1.29950215750000
H           -2.50864966550000       -2.62856040400000       -0.41304355000000
H            2.32244446350000        0.77565338070000       -1.32729318590000
H            0.46511663960000        2.35614628440000       -0.63177005740000
$end

$rem
BASIS = 6-31G*
GUI = 2
METHOD = B3LYP
PRINT_ORBITALS false
MOLDEN_FORMAT false
$end
--------------------------------------------------------------

             Standard Nuclear Orientation (Angstroms)
    I     Atom           X                Y                Z
 ----------------------------------------------------------------
    1      C       4.4178690284     1.2874538360    -0.2902510013
    2      C       3.1527258957     1.6318634192    -0.0833228862
    3      C       2.0069223613     0.7344521262     0.0132805222
    4      C       2.1230944003    -0.6552195676    -0.0592443637
    5      C       1.0204909747    -1.4833519089     0.0525070712
    6      C       1.1320225082    -2.9749350221     0.0042856563
    7      C      -0.2275542697    -0.8917815015     0.2223266539
    8      F      -1.2955639291    -1.7001241479     0.3847866951
    9      C      -0.3983275853     0.4886441775     0.2779578064
   10      C      -1.7059692487     1.1193118936     0.4472814778
   11      C      -2.8392880428     0.7201380266    -0.1067104033
   12      F      -3.0143824961    -0.2820561887    -0.9503930502
   13      F      -4.0000587241     1.3442556350     0.0807327556
   14      C       0.7404525983     1.2841473118     0.1897575131
   15      H       5.1951217345     2.0297604789    -0.3467307073
   16      H       4.7347832602     0.2663248104    -0.4132378382
   17      H       2.9081083129     2.6811319337     0.0267363218
   18      H       3.0936323672    -1.1059492532    -0.1928681305
   19      H       2.1609213851    -3.2815383748    -0.1605591066
   20      H       0.5085875559    -3.3721366369    -0.7955269073
   21      H       0.7776425131    -3.4079338427     0.9390313268
   22      H      -1.7507279795     2.0103608105     1.0548763789
   23      H       0.6273454717     2.3569656444     0.2449327782
 ----------------------------------------------------------------

    9    -724.0649387336      4.11e-06  Convergence criterion met
 Total energy in the final basis set =     -724.0649387336

                    Orbital Energies (a.u.)
 --------------------------------------------------------------

 Alpha MOs
 -- Occupied --
-24.7379 -24.7330 -24.7092 -10.3567 -10.2693 -10.2113 -10.2038 -10.2033
-10.1987 -10.1951 -10.1932 -10.1927 -10.1865 -10.1818  -1.2831  -1.2238
 -1.2192  -0.8789  -0.8185  -0.8014  -0.7618  -0.7265  -0.6988  -0.6516
 -0.6240  -0.6052  -0.5710  -0.5636  -0.5483  -0.5271  -0.5162  -0.4883
 -0.4772  -0.4677  -0.4459  -0.4398  -0.4374  -0.4339  -0.4244  -0.4183
 -0.4095  -0.4050  -0.3888  -0.3860  -0.3706  -0.3542  -0.3421  -0.3079
 -0.2768  -0.2356  -0.2183

          Ground-State Mulliken Net Atomic Charges

     Atom                 Charge (a.u.)
  ----------------------------------------
      1 C                    -0.355007
      2 C                    -0.113791
      3 C                     0.194456
      4 C                    -0.244858
      5 C                     0.107549
      6 C                    -0.521692
      7 C                     0.259994
      8 F                    -0.286976
      9 C                     0.114493
     10 C                    -0.318609
     11 C                     0.568740
     12 F                    -0.229215
     13 F                    -0.247556
     14 C                    -0.271492
     15 H                     0.145164
     16 H                     0.142495
     17 H                     0.127403
     18 H                     0.126207
     19 H                     0.156071
     20 H                     0.173147
     21 H                     0.172735
     22 H                     0.168599
     23 H                     0.132141
  ----------------------------------------
  Sum of atomic charges =     0.000000

                    Cartesian Multipole Moments
 -----------------------------------------------------------------
    Charge (ESU x 10^10)
                 0.0000
    Dipole Moment (Debye)
         X       1.7214      Y       0.3806      Z       0.2567
       Tot       1.7816
    Quadrupole Moments (Debye-Ang)
        XX     -78.5932     XY      -2.2030     YY     -71.7488
        XZ      -1.3563     YZ       1.3155     ZZ     -80.2335

 Total job time:  60.36s(wall), 56.52s(cpu)
        *  Thank you very much for using Q-Chem.  Have a nice day.  *
