 Q-Chem 5.4, Q-Chem, Inc., Pleasanton, CA (2021)
 Q-Chem 5.4.2 for Intel X86 EM64T Linux

User input:
--------------------------------------------------------------
$molecule
0 1
C            2.82306648110000       -2.68471031650000        0.62446122240000
C            2.34617550990000       -1.71532195870000       -0.14383842510000
C            0.98991260560000       -1.17818564320000       -0.06342171540000
C           -0.07688316050000       -2.01934516560000        0.25431659540000
C           -1.38013844150000       -1.56699519210000        0.25827616160000
C           -1.63953010850000       -0.24659384060000       -0.08739161200000
C           -3.04433805960000        0.28301198270000       -0.09883549430000
F           -3.97208090390000       -0.68239366770000       -0.14769665130000
F           -3.31820701360000        1.01367597700000        1.00076655580000
F           -3.27904924030000        1.09218141820000       -1.14640978000000
C           -0.59915065200000        0.61186460030000       -0.40281053760000
C            0.71870719440000        0.16592228660000       -0.37415471390000
C            1.76571667610000        1.14512681080000       -0.66822582880000
C            2.90209547750000        1.28886968280000       -0.00635958050000
F            3.31082614740000        0.59181477370000        1.04360973440000
F            3.80957856050000        2.21477958860000       -0.29721585790000
H            3.82879175670000       -3.04889574220000        0.50942400600000
H            2.24189235510000       -3.12771844680000        1.41526700540000
H            2.98044782260000       -1.26526088770000       -0.89711507100000
H            0.12485305780000       -3.05478060480000        0.47911868410000
H           -2.19285772660000       -2.23205484960000        0.50512671140000
H           -0.81191273290000        1.63857291580000       -0.66082988980000
H            1.57135319540000        1.86008042030000       -1.45388476010000
$end

$rem
BASIS = 6-31G*
GUI = 2
METHOD = B3LYP
PRINT_ORBITALS false
MOLDEN_FORMAT false
$end
--------------------------------------------------------------

             Standard Nuclear Orientation (Angstroms)
    I     Atom           X                Y                Z
 ----------------------------------------------------------------
    1      C       2.7728749776     2.7040574547    -0.0837207513
    2      C       2.2762521539     1.6214208047     0.4982472805
    3      C       0.9292347326     1.1000567218     0.2788050469
    4      C      -0.1326193359     1.9781546312     0.0597840852
    5      C      -1.4303991734     1.5282326634    -0.0684665300
    6      C      -1.6902009028     0.1684338042     0.0484954275
    7      C      -3.0893062823    -0.3605458800    -0.0810549517
    8      F      -4.0274028366     0.5811786527     0.0869689363
    9      F      -3.3139942269    -0.9041862326    -1.2943023460
   10      F      -3.3561322464    -1.3295719543     0.8117209273
   11      C      -0.6544891011    -0.7264432996     0.2613931489
   12      C       0.6591888740    -0.2775104076     0.3570197296
   13      C       1.7034924674    -1.2880544087     0.5295856659
   14      C       2.8656419157    -1.3189500024    -0.1017144578
   15      F       3.3075131261    -0.4596063612    -1.0081692051
   16      F       3.7701418269    -2.2768328458     0.0708324714
   17      H       3.7699535039     3.0480177514     0.1281132454
   18      H       2.2181324658     3.2675174690    -0.8145879845
   19      H       2.8855524213     1.0572554737     1.1930513557
   20      H       0.0676726139     3.0369802989     0.0136173243
   21      H      -2.2394019977     2.2218885051    -0.2361214790
   22      H      -0.8671503675    -1.7820771521     0.3412931464
   23      H       1.4860886178    -2.1215261651     1.1809351728
 ----------------------------------------------------------------

    9    -922.5460527126      3.72e-06  Convergence criterion met
 Total energy in the final basis set =     -922.5460527126

                    Orbital Energies (a.u.)
 --------------------------------------------------------------

 Alpha MOs
 -- Occupied --
-24.7476 -24.7432 -24.7240 -24.7203 -24.7147 -10.4288 -10.3667 -10.2210
-10.2166 -10.2144 -10.2116 -10.2094 -10.2077 -10.2033 -10.1997 -10.1897
 -1.3042  -1.2928  -1.2320  -1.2151  -1.2084  -0.8919  -0.8275  -0.8102
 -0.7600  -0.7546  -0.6956  -0.6563  -0.6417  -0.6207  -0.5844  -0.5815
 -0.5781  -0.5755  -0.5722  -0.5279  -0.5167  -0.5019  -0.4825  -0.4667
 -0.4542  -0.4534  -0.4482  -0.4457  -0.4420  -0.4397  -0.4213  -0.4182
 -0.4164  -0.4095  -0.3931  -0.3854  -0.3793  -0.3634  -0.3559  -0.3068
 -0.2996  -0.2529  -0.2366

          Ground-State Mulliken Net Atomic Charges

     Atom                 Charge (a.u.)
  ----------------------------------------
      1 C                    -0.335791
      2 C                    -0.128915
      3 C                     0.124164
      4 C                    -0.192630
      5 C                    -0.159005
      6 C                    -0.005789
      7 C                     0.775401
      8 F                    -0.266035
      9 F                    -0.262605
     10 F                    -0.267603
     11 C                    -0.215037
     12 C                     0.108847
     13 C                    -0.342472
     14 C                     0.570861
     15 F                    -0.224860
     16 F                    -0.241812
     17 H                     0.149341
     18 H                     0.147775
     19 H                     0.142296
     20 H                     0.141676
     21 H                     0.154686
     22 H                     0.153360
     23 H                     0.174148
  ----------------------------------------
  Sum of atomic charges =     0.000000

                    Cartesian Multipole Moments
 -----------------------------------------------------------------
    Charge (ESU x 10^10)
                -0.0000
    Dipole Moment (Debye)
         X       1.7657      Y       1.0029      Z       0.6578
       Tot       2.1345
    Quadrupole Moments (Debye-Ang)
        XX     -94.6447     XY      -0.1698     YY     -80.7804
        XZ       1.5690     YZ      -2.4517     ZZ     -88.5367

 Total job time:  77.17s(wall), 67.63s(cpu)
        *  Thank you very much for using Q-Chem.  Have a nice day.  *
