 Q-Chem 5.4, Q-Chem, Inc., Pleasanton, CA (2021)
 Q-Chem 5.4.2 for Intel X86 EM64T Linux

User input:
--------------------------------------------------------------
$molecule
0 1
C           -3.08569962720000        1.85996948130000       -0.93544463690000
C           -2.21466756330000        1.96052752540000        0.05683388780000
C           -0.90841504260000        1.29491509720000        0.08483442580000
C            0.20535438410000        2.06112448580000        0.42570800240000
C            1.48481126160000        1.54545612870000        0.37231973460000
C            1.66353477420000        0.23040134590000       -0.03467736290000
C            3.03355482200000       -0.37788215750000       -0.12119216990000
F            4.02122236050000        0.51442450540000        0.02365115970000
F            3.23071997000000       -1.31887021720000        0.82309034780000
F            3.24293157920000       -0.99164167660000       -1.30043701830000
C            0.56983441130000       -0.56218427480000       -0.34611880630000
C           -0.72173838950000       -0.05064041840000       -0.26946414450000
C           -1.82633226920000       -0.97845483200000       -0.52974312590000
C           -2.91330855840000       -1.09548534580000        0.21286652520000
F           -3.21786359550000       -0.38455920530000        1.28898321970000
F           -3.87739202330000       -1.97902393860000       -0.01914991630000
H           -4.01144439930000        2.40839030100000       -0.92963292360000
H           -2.90176431330000        1.23790687650000       -1.79606531400000
H           -2.41077349790000        2.62563829810000        0.88725347070000
H            0.05950830230000        3.09015000520000        0.71781738840000
H            2.33597424160000        2.15541472270000        0.63106224270000
H            0.72232264850000       -1.59144573960000       -0.63514865140000
H           -1.70988884870000       -1.68182885100000       -1.34026819170000
$end

$rem
BASIS = 6-31G*
GUI = 2
METHOD = B3LYP
PRINT_ORBITALS false
MOLDEN_FORMAT false
$end
--------------------------------------------------------------

             Standard Nuclear Orientation (Angstroms)
    I     Atom           X                Y                Z
 ----------------------------------------------------------------
    1      C      -3.0375554788    -1.7328165993     1.0582738611
    2      C      -2.1934570764    -1.8790424403     0.0485504644
    3      C      -0.8796220220    -1.2332669565    -0.0347025044
    4      C       0.2148506692    -2.0261804518    -0.3770059888
    5      C       1.5019816889    -1.5271282661    -0.3731697102
    6      C       1.7084349121    -0.2017627270    -0.0157608863
    7      C       3.0881634453     0.3896798139     0.0157583024
    8      F       4.0598993268    -0.5208609291    -0.1232484219
    9      F       3.2737142637     1.2954394259    -0.9646357594
   10      F       3.3355950525     1.0398045352     1.1678317518
   11      C       0.6336243602     0.6162342899     0.2957377179
   12      C      -0.6661546946     0.1206910627     0.2688179688
   13      C      -1.7513612535     1.0722566467     0.5248688177
   14      C      -2.8552269817     1.1795405863    -0.1939171718
   15      F      -3.1964637804     0.4371330641    -1.2372701352
   16      F      -3.8012874141     2.0839231270     0.0318944306
   17      H      -3.9703444050    -2.2679921356     1.0942532855
   18      H      -2.8235495472    -1.0847703612     1.8923599288
   19      H      -2.4194316276    -2.5689186532    -0.7535922125
   20      H       0.0479792924    -3.0623011301    -0.6301865097
   21      H       2.3381186230    -2.1574190573    -0.6321757650
   22      H       0.8070599543     1.6523931854     0.5456675374
   23      H      -1.6050147391     1.8008253933     1.3078217168
 ----------------------------------------------------------------

    9    -922.5412492661      3.65e-06  Convergence criterion met
 Total energy in the final basis set =     -922.5412492661

                    Orbital Energies (a.u.)
 --------------------------------------------------------------

 Alpha MOs
 -- Occupied --
-24.7435 -24.7395 -24.7247 -24.7185 -24.7155 -10.4286 -10.3609 -10.2207
-10.2165 -10.2147 -10.2091 -10.2080 -10.2064 -10.2041 -10.2002 -10.1893
 -1.3042  -1.2885  -1.2282  -1.2150  -1.2083  -0.8917  -0.8265  -0.8070
 -0.7624  -0.7524  -0.6956  -0.6557  -0.6338  -0.6238  -0.5830  -0.5816
 -0.5777  -0.5733  -0.5705  -0.5232  -0.5142  -0.5027  -0.4816  -0.4640
 -0.4556  -0.4531  -0.4512  -0.4441  -0.4405  -0.4355  -0.4189  -0.4180
 -0.4160  -0.4092  -0.3929  -0.3838  -0.3757  -0.3687  -0.3554  -0.3005
 -0.2979  -0.2566  -0.2317

          Ground-State Mulliken Net Atomic Charges

     Atom                 Charge (a.u.)
  ----------------------------------------
      1 C                    -0.325095
      2 C                    -0.145153
      3 C                     0.115088
      4 C                    -0.190181
      5 C                    -0.158169
      6 C                    -0.004221
      7 C                     0.776574
      8 F                    -0.266326
      9 F                    -0.264532
     10 F                    -0.268117
     11 C                    -0.213125
     12 C                     0.116974
     13 C                    -0.353243
     14 C                     0.586702
     15 F                    -0.230894
     16 F                    -0.243249
     17 H                     0.149596
     18 H                     0.153910
     19 H                     0.143925
     20 H                     0.140061
     21 H                     0.155071
     22 H                     0.153905
     23 H                     0.170497
  ----------------------------------------
  Sum of atomic charges =     0.000000

                    Cartesian Multipole Moments
 -----------------------------------------------------------------
    Charge (ESU x 10^10)
                -0.0000
    Dipole Moment (Debye)
         X      -1.7326      Y      -1.3140      Z       0.4544
       Tot       2.2215
    Quadrupole Moments (Debye-Ang)
        XX     -94.6220     XY       0.0678     YY     -81.9134
        XZ      -2.4677     YZ       3.3604     ZZ     -87.2266

 Total job time:  77.19s(wall), 69.06s(cpu)
        *  Thank you very much for using Q-Chem.  Have a nice day.  *
