 Q-Chem 5.2, Q-Chem, Inc., Pleasanton, CA (2019)
 Q-Chem 5.2.1 for Intel X86 EM64T Linux

User input:
--------------------------------------------------------------
$molecule
0 1
C         2.08257399030000   -3.29919771520000    0.36315276270000
C         2.25249425710000   -2.12363684200000   -0.22699900160000
C         1.32645615520000   -0.99537461570000   -0.13963310500000
C        -0.04327624470000   -1.23629632720000   -0.07496555250000
C        -0.97461744630000   -0.21160617940000   -0.02640714900000
C        -2.47533921740000   -0.45259308110000    0.03854237760000
C        -2.82995430340000   -1.94031188240000    0.10871233910000
C        -3.04021239330000    0.23086000080000    1.29162624420000
C        -3.13335739580000    0.13865949400000   -1.21600577560000
C        -0.49003237120000    1.08991873840000   -0.06270598080000
C         0.86614599250000    1.38221711330000   -0.12646779240000
C         1.30354034940000    2.77592449350000   -0.19889109990000
C         0.71421741470000    3.79219700840000    0.41628041770000
C         1.79974985000000    0.32871517820000   -0.14994760640000
N         3.14837130610000    0.59096204630000   -0.05344681390000
H         2.78777116700000   -4.10332021420000    0.23822072470000
H         1.24194122490000   -3.49825312630000    1.00583553390000
H         3.13451594490000   -1.97568611400000   -0.84216215080000
H        -0.36109167470000   -2.26527128190000   -0.09050673540000
H        -2.38935564780000   -2.40480145760000    0.98784716520000
H        -2.49087366270000   -2.46651654750000   -0.78057835050000
H        -3.91052470560000   -2.05341541610000    0.17368395610000
H        -2.55920438400000   -0.16483422080000    2.18375105350000
H        -4.11100192450000    0.05206230480000    1.36759460750000
H        -2.87649964540000    1.30443229390000    1.26466374910000
H        -2.72623118590000   -0.33009014090000   -2.10961931050000
H        -2.96019857950000    1.20910652290000   -1.28502651780000
H        -4.20776159900000   -0.03302017910000   -1.19439342140000
H        -1.17740400680000    1.92165978970000   -0.06872991970000
H         2.16791210180000    2.97771567830000   -0.82366635940000
H        -0.13023194290000    3.65012730480000    1.06914817330000
H         1.06452052820000    4.80415590400000    0.30334366230000
H         3.45276489650000    1.51691470730000   -0.30244874330000
H         3.77801104490000   -0.15049743540000   -0.31001262900000
$end

$rem
BASIS = 6-31G*
GUI = 2
METHOD = B3LYP
PRINT_ORBITALS false
MOLDEN_FORMAT false
--------------------------------------------------------------

             Standard Nuclear Orientation (Angstroms)
    I     Atom           X                Y                Z
 ----------------------------------------------------------------
    1      C      -1.5880034457    -3.5818314849    -0.4166915771
    2      C      -1.9533161944    -2.4506498136     0.1715855606
    3      C      -1.2134018012    -1.1910097112     0.1084308252
    4      C       0.1782793652    -1.2144572076     0.0757848987
    5      C       0.9387348609    -0.0565044788     0.0513478725
    6      C       2.4597741188    -0.0595360905     0.0215259447
    7      C       3.0442709225    -1.4731000110    -0.0431536004
    8      C       2.9395894876     0.7109048127    -1.2164591211
    9      C       2.9880307550     0.6202102948     1.2924895072
   10      C       0.2558120526     1.1530304807     0.0787163142
   11      C      -1.1305014387     1.2293461995     0.1108796132
   12      C      -1.7820820791     2.5371018946     0.1756633406
   13      C      -1.3449299505     3.6364766474    -0.4233529457
   14      C      -1.8881045431     0.0427246200     0.1101345978
   15      N      -3.2585514148     0.0914472526    -0.0177994929
   16      H      -2.1614282000    -4.4870095533    -0.3101046114
   17      H      -0.7119556362    -3.6433756388    -1.0396524104
   18      H      -2.8616019693    -2.4458960468     0.7659522223
   19      H       0.6526980367    -2.1811639088     0.0968256082
   20      H       2.7021928030    -1.9957777234    -0.9334043248
   21      H       2.7712169814    -2.0508697809     0.8368058300
   22      H       4.1304407113    -1.4155085333    -0.0827076909
   23      H       2.5471490787     0.2499313771    -2.1205184745
   24      H       4.0266320410     0.7021441061    -1.2673685077
   25      H       2.6093761073     1.7455113756    -1.1912660265
   26      H       2.6386998303     0.0885255265     2.1752705293
   27      H       2.6480070077     1.6500152707     1.3594987841
   28      H       4.0762728047     0.6187374656     1.2960205090
   29      H       0.8042886423     2.0819591090     0.1026801135
   30      H      -2.6815842992     2.5977381644     0.7801642359
   31      H      -0.4737923600     3.6318708746    -1.0562928401
   32      H      -1.8517350715     4.5805706356    -0.3167560449
   33      H      -3.7097154329     0.9570013659     0.2257428132
   34      H      -3.7702138320    -0.7407717666     0.2222993535
 ----------------------------------------------------------------

    8    -599.6455456070      9.71e-06  Convergence criterion met
 Total energy in the final basis set =     -599.6455456070

                    Orbital Energies (a.u.)
 --------------------------------------------------------------

 Alpha MOs
 -- Occupied --
-14.3409 -10.2218 -10.1897 -10.1888 -10.1878 -10.1809 -10.1794 -10.1756
-10.1744 -10.1729 -10.1721 -10.1707 -10.1642 -10.1632 -10.1630  -0.9258
 -0.8492  -0.8093  -0.8009  -0.7607  -0.7117  -0.7109  -0.6803  -0.6794
 -0.6318  -0.6071  -0.5871  -0.5349  -0.5298  -0.5264  -0.5199  -0.4632
 -0.4585  -0.4540  -0.4414  -0.4341  -0.4291  -0.4169  -0.4075  -0.3938
 -0.3917  -0.3758  -0.3739  -0.3618  -0.3610  -0.3596  -0.3386  -0.3279
 -0.3133  -0.3075  -0.2982  -0.2950  -0.2671  -0.2155  -0.1872

          Ground-State Mulliken Net Atomic Charges

     Atom                 Charge (a.u.)
  ----------------------------------------
      1 C                    -0.339895
      2 C                    -0.142244
      3 C                     0.158117
      4 C                    -0.284388
      5 C                     0.200398
      6 C                     0.006905
      7 C                    -0.454024
      8 C                    -0.436107
      9 C                    -0.435677
     10 C                    -0.270586
     11 C                     0.154057
     12 C                    -0.142978
     13 C                    -0.338840
     14 C                     0.158975
     15 N                    -0.799333
     16 H                     0.137461
     17 H                     0.144194
     18 H                     0.116643
     19 H                     0.123679
     20 H                     0.143279
     21 H                     0.145283
     22 H                     0.138857
     23 H                     0.146133
     24 H                     0.134945
     25 H                     0.139812
     26 H                     0.144993
     27 H                     0.142641
     28 H                     0.134527
     29 H                     0.122879
     30 H                     0.118055
     31 H                     0.144465
     32 H                     0.138148
     33 H                     0.324651
     34 H                     0.324974
  ----------------------------------------
  Sum of atomic charges =     0.000000

                    Cartesian Multipole Moments
 -----------------------------------------------------------------
    Charge (ESU x 10^10)
                 0.0000
    Dipole Moment (Debye)
         X      -1.2960      Y       0.0960      Z       0.8415
       Tot       1.5482
    Quadrupole Moments (Debye-Ang)
        XX     -79.9838     XY      -0.3526     YY     -86.9899
        XZ      -5.4464     YZ       0.1668     ZZ     -95.2798

 Total job time:  54.00s(wall), 53.46s(cpu)
        *  Thank you very much for using Q-Chem.  Have a nice day.  *
