 Q-Chem 5.2, Q-Chem, Inc., Pleasanton, CA (2019)
 Q-Chem 5.2.1 for Intel X86 EM64T Linux

User input:
--------------------------------------------------------------
$molecule
0 1
C        -2.09430361890000   -3.45907786860000    0.06530505830000
C        -2.14147223400000   -2.31553697440000    0.74429861550000
C        -1.55085410120000   -1.07379611220000    0.32287373180000
C        -0.85188115860000   -0.76882829400000   -0.81516233380000
C        -0.40391883650000    0.56645590380000   -0.88622365970000
C         0.46413968260000    1.06320146430000   -2.00213825180000
C         1.70380286590000    0.19209186270000   -2.25363675950000
C         2.85618943220000    0.45620578200000   -1.28195664270000
C         2.57919325730000    0.11518990160000    0.18255228750000
C         2.34738825920000   -1.37205043180000    0.43678187030000
C         2.07428639370000   -1.64862150650000    1.90987041250000
C        -0.80198835800000    1.30720680300000    0.20480327250000
C        -0.61120412980000    2.70052219590000    0.53521333820000
C        -0.58598381920000    3.71249682980000   -0.32631419360000
S        -1.67436117910000    0.32330997690000    1.34743659520000
H        -2.55698367190000   -4.35314926560000    0.44384630760000
H        -1.59627623780000   -3.54253836870000   -0.88504698300000
H        -2.65116077020000   -2.27777927880000    1.69847862000000
H        -0.67346184880000   -1.48719854710000   -1.59541134930000
H         0.79384459520000    2.07964611190000   -1.78717542790000
H        -0.13538423070000    1.08824512520000   -2.91771777240000
H         2.06806404810000    0.41014024540000   -3.26115910970000
H         1.43507456550000   -0.86336447810000   -2.22961322570000
H         3.12442131280000    1.51444062120000   -1.34390126920000
H         3.72250082320000   -0.12091868600000   -1.61734875440000
H         1.71510008790000    0.68015608260000    0.53198501630000
H         3.43966688280000    0.43881035880000    0.77463812640000
H         3.22572029970000   -1.93633173930000    0.11364581030000
H         1.49275235930000   -1.71912840540000   -0.14498357180000
H         2.91269961870000   -1.32683810230000    2.52419841530000
H         1.91194236310000   -2.71106323290000    2.07705201570000
H         1.18539246860000   -1.11264374920000    2.23611882220000
H        -0.53321140400000    2.90527651260000    1.59654245570000
H        -0.73071660630000    3.57648190410000   -1.38379849340000
H        -0.44338831170000    4.72455659110000    0.01118511890000
$end

$rem
BASIS = 6-31G*
GUI = 2
METHOD = B3LYP
PRINT_ORBITALS false
MOLDEN_FORMAT false
--------------------------------------------------------------

             Standard Nuclear Orientation (Angstroms)
    I     Atom           X                Y                Z
 ----------------------------------------------------------------
    1      C       3.8245394779    -0.6465405377     1.2294133204
    2      C       3.2583620193     0.1826100430     0.3559745386
    3      C       1.8647931258     0.5370325270     0.3295260533
    4      C       0.8388856023     0.1509773955     1.1512132322
    5      C      -0.4177818777     0.6937831212     0.8123140854
    6      C      -1.6771738606     0.3091032560     1.5275066162
    7      C      -1.8903078835    -1.2085744946     1.6278877851
    8      C      -2.4571041405    -1.8418248008     0.3552333690
    9      C      -1.5531145216    -1.7770160955    -0.8761917074
   10      C      -0.2575975169    -2.5716699170    -0.7333244900
   11      C       0.6005592727    -2.4667163477    -1.9877636930
   12      C      -0.3427231164     1.5427860747    -0.2698463337
   13      C      -1.3500856728     2.3391294890    -0.9316280680
   14      C      -2.3812821691     2.9401290026    -0.3464855363
   15      S       1.2784656960     1.6103703420    -0.9037843551
   16      H       4.8758644123    -0.8694697250     1.1875990715
   17      H       3.2631116466    -1.1281834547     2.0110685005
   18      H       3.8610322487     0.6430050115    -0.4163547927
   19      H       0.9855500979    -0.5012569055     1.9936844419
   20      H      -2.5368597609     0.7459536342     1.0193964248
   21      H      -1.6363099383     0.7226993333     2.5402308584
   22      H      -2.6061357443    -1.3941238473     2.4331793494
   23      H      -0.9597522152    -1.7033394554     1.9036664983
   24      H      -3.4020444487    -1.3469952909     0.1146548507
   25      H      -2.6822084939    -2.8905434652     0.5687120315
   26      H      -1.3159222147    -0.7371969123    -1.1008311939
   27      H      -2.1118728461    -2.1738853046    -1.7282449140
   28      H      -0.4951573168    -3.6202095543    -0.5372952800
   29      H       0.3179221010    -2.1940846343     0.1125615510
   30      H       0.0640044405    -2.8470287470    -2.8545690813
   31      H       1.5192292684    -3.0376431182    -1.8729779946
   32      H       0.8659434536    -1.4287932131    -2.1778410313
   33      H      -1.1896528628     2.4759853225    -1.9946231223
   34      H      -2.5491870412     2.8988623067     0.7155058468
   35      H      -3.0828183554     3.5210702523    -0.9199473647
 ----------------------------------------------------------------

    9    -943.6762457801      3.89e-06  Convergence criterion met
 Total energy in the final basis set =     -943.6762457801

                    Orbital Energies (a.u.)
 --------------------------------------------------------------

 Alpha MOs
 -- Occupied --
-88.9020 -10.2172 -10.2135 -10.1988 -10.1985 -10.1940 -10.1850 -10.1843
-10.1832 -10.1826 -10.1769 -10.1702 -10.1638 -10.1620 -10.1578  -7.9637
 -5.9277  -5.9242  -5.9207  -0.8903  -0.8135  -0.8019  -0.7764  -0.7678
 -0.7368  -0.7069  -0.6906  -0.6429  -0.6145  -0.6045  -0.5823  -0.5485
 -0.5426  -0.5117  -0.4903  -0.4740  -0.4708  -0.4419  -0.4411  -0.4335
 -0.4235  -0.4163  -0.4023  -0.3942  -0.3881  -0.3734  -0.3675  -0.3658
 -0.3605  -0.3496  -0.3381  -0.3332  -0.3321  -0.3221  -0.3062  -0.3033
 -0.3002  -0.2699  -0.2432  -0.1988

          Ground-State Mulliken Net Atomic Charges

     Atom                 Charge (a.u.)
  ----------------------------------------
      1 C                    -0.342365
      2 C                    -0.086470
      3 C                    -0.123475
      4 C                    -0.170200
      5 C                     0.185008
      6 C                    -0.346249
      7 C                    -0.263276
      8 C                    -0.255893
      9 C                    -0.255148
     10 C                    -0.249844
     11 C                    -0.448992
     12 C                    -0.211978
     13 C                    -0.101424
     14 C                    -0.337124
     15 S                     0.222753
     16 H                     0.147059
     17 H                     0.142191
     18 H                     0.137029
     19 H                     0.139268
     20 H                     0.149914
     21 H                     0.147319
     22 H                     0.129858
     23 H                     0.137611
     24 H                     0.126361
     25 H                     0.125591
     26 H                     0.148295
     27 H                     0.121785
     28 H                     0.122209
     29 H                     0.140065
     30 H                     0.135949
     31 H                     0.137690
     32 H                     0.156313
     33 H                     0.142403
     34 H                     0.152575
     35 H                     0.145194
  ----------------------------------------
  Sum of atomic charges =     0.000000

                    Cartesian Multipole Moments
 -----------------------------------------------------------------
    Charge (ESU x 10^10)
                -0.0000
    Dipole Moment (Debye)
         X      -0.4398      Y      -0.1514      Z       0.6885
       Tot       0.8309
    Quadrupole Moments (Debye-Ang)
        XX     -94.8143     XY      -3.5573     YY    -101.4483
        XZ      -0.0146     YZ      -3.3245     ZZ     -97.6302

 Total job time:  69.17s(wall), 68.97s(cpu)
        *  Thank you very much for using Q-Chem.  Have a nice day.  *
