 Q-Chem 5.2, Q-Chem, Inc., Pleasanton, CA (2019)
 Q-Chem 5.2.1 for Intel X86 EM64T Linux

User input:
--------------------------------------------------------------
$molecule
0 1
C        -4.62816689900000   -0.26939354530000   -0.09559975950000
C        -3.49002658680000    0.41496209140000   -0.10479607370000
C        -2.14352339030000   -0.13875020460000   -0.06517574640000
C        -1.87413378400000   -1.50787487910000   -0.00925995560000
C        -0.57931056670000   -1.97580658370000    0.02408790070000
C         0.51606531060000   -1.11020176800000    0.00389563160000
C         1.88173194400000   -1.62740698610000    0.03098049820000
C         2.24486693150000   -2.73803377500000    0.65926526330000
C         0.24416253490000    0.26424807950000   -0.05487334710000
C         1.37534335860000    1.25417523730000   -0.06235182020000
F         2.11634719850000    1.19114033920000   -1.18864029880000
F         0.96099063160000    2.52686385800000    0.02700246500000
F         2.23561636800000    1.07529727870000    0.95767566530000
C        -1.05698737670000    0.73562914420000   -0.08575333800000
H        -5.57965684680000    0.23246236510000   -0.12697314440000
H        -4.66519099220000   -1.34443224990000   -0.05706945730000
H        -3.52847004590000    1.49633177270000   -0.14508710500000
H        -2.68822653750000   -2.21530784520000    0.00329942770000
H        -0.39778796970000   -3.03924872190000    0.04526450350000
H         2.62877109420000   -1.04587354820000   -0.49056745860000
H         1.54861723750000   -3.33251363320000    1.22681674420000
H         3.26540953960000   -3.07843965920000    0.64862264250000
H        -1.23459851490000    1.80024554870000   -0.12476531270000
$end

$rem
BASIS = 6-31G*
GUI = 2
METHOD = B3LYP
PRINT_ORBITALS false
MOLDEN_FORMAT false
--------------------------------------------------------------

             Standard Nuclear Orientation (Angstroms)
    I     Atom           X                Y                Z
 ----------------------------------------------------------------
    1      C       4.5516407728     0.1941989201    -0.0519888715
    2      C       3.3594432134     0.7791660691    -0.0683898990
    3      C       2.0651684613     0.1146483063    -0.0012561193
    4      C       1.9134211601    -1.2705306915     0.0906765224
    5      C       0.6633918353    -1.8450922737     0.1534857499
    6      C      -0.5015396882    -1.0757913942     0.1282183880
    7      C      -1.8176824304    -1.7044181239     0.2048793175
    8      C      -2.1018191008    -2.9001821064    -0.2946359277
    9      C      -0.3476658600     0.3151685375     0.0384932010
   10      C      -1.5593539604     1.2034199509    -0.0105285824
   11      F      -2.2589238224     1.1957100998     1.1436500834
   12      F      -1.2591690706     2.4900392593    -0.2427105867
   13      F      -2.4304182603     0.8496043375    -0.9741594988
   14      C       0.9082940482     0.8934188895    -0.0273552145
   15      H       5.4567795470     0.7737300967    -0.1071629573
   16      H       4.6801610074    -0.8722935079     0.0161289267
   17      H       3.3055817133     1.8583695641    -0.1382498266
   18      H       2.7848123285    -1.9055735779     0.1183191518
   19      H       0.5737807320    -2.9164113912     0.2459697037
   20      H      -2.5965603212    -1.1361076193     0.6933803963
   21      H      -1.3737464242    -3.4902795770    -0.8256536058
   22      H      -3.0884287110    -3.3210713171    -0.2112668934
   23      H       0.9944297997     1.9674175565    -0.1020762619
 ----------------------------------------------------------------

    9    -724.0808596139      3.85e-06  Convergence criterion met
 Total energy in the final basis set =     -724.0808596139

                    Orbital Energies (a.u.)
 --------------------------------------------------------------

 Alpha MOs
 -- Occupied --
-24.7231 -24.7182 -24.7170 -10.4284 -10.2149 -10.2142 -10.2083 -10.2045
-10.2020 -10.2006 -10.1992 -10.1969 -10.1890 -10.1883  -1.3039  -1.2131
 -1.2089  -0.8867  -0.8228  -0.7893  -0.7730  -0.7323  -0.6946  -0.6466
 -0.6324  -0.5942  -0.5797  -0.5778  -0.5752  -0.5327  -0.5086  -0.4861
 -0.4767  -0.4597  -0.4560  -0.4484  -0.4345  -0.4283  -0.4165  -0.4103
 -0.4019  -0.3946  -0.3928  -0.3874  -0.3713  -0.3531  -0.3476  -0.3244
 -0.2788  -0.2701  -0.2249

          Ground-State Mulliken Net Atomic Charges

     Atom                 Charge (a.u.)
  ----------------------------------------
      1 C                    -0.352314
      2 C                    -0.110844
      3 C                     0.181496
      4 C                    -0.170097
      5 C                    -0.194547
      6 C                     0.120430
      7 C                    -0.120227
      8 C                    -0.338127
      9 C                    -0.057419
     10 C                     0.789563
     11 F                    -0.270131
     12 F                    -0.266782
     13 F                    -0.266697
     14 C                    -0.254427
     15 H                     0.149971
     16 H                     0.145376
     17 H                     0.133457
     18 H                     0.134488
     19 H                     0.139358
     20 H                     0.156036
     21 H                     0.146849
     22 H                     0.150666
     23 H                     0.153921
  ----------------------------------------
  Sum of atomic charges =     0.000000

                    Cartesian Multipole Moments
 -----------------------------------------------------------------
    Charge (ESU x 10^10)
                 0.0000
    Dipole Moment (Debye)
         X       1.9365      Y      -1.5451      Z       0.0372
       Tot       2.4777
    Quadrupole Moments (Debye-Ang)
        XX     -73.7635     XY       3.2628     YY     -72.9534
        XZ      -0.6925     YZ       0.3074     ZZ     -82.5204

 Total job time:  38.82s(wall), 37.95s(cpu)
        *  Thank you very much for using Q-Chem.  Have a nice day.  *
