 Q-Chem 5.2, Q-Chem, Inc., Pleasanton, CA (2019)
 Q-Chem 5.2.1 for Intel X86 EM64T Linux

User input:
--------------------------------------------------------------
$molecule
0 1
C         5.09071148360000   -2.37604956030000   -0.52060748980000
C         4.66477470890000   -1.12178493140000   -0.42675091150000
C         3.31424606330000   -0.67779764010000   -0.10894822990000
C         2.26815661280000   -1.55304604370000    0.17716381000000
C         1.00534479460000   -1.08273705810000    0.48007111100000
C         0.74278782370000    0.28220322660000    0.50784903190000
O        -0.46665957320000    0.83634486910000    0.81326619200000
C        -1.58949783780000    0.01573395060000    1.02714061110000
C        -2.16278453530000   -0.52710345730000   -0.30201304410000
C        -2.82829821990000    0.58562014830000   -1.12190714690000
C        -4.19730611640000    0.95703351950000   -0.55554835770000
C        -5.03442106920000   -0.31041658880000   -0.40641649470000
C        -4.27300278640000   -1.31531780900000    0.45541873460000
O        -3.01131485610000   -1.63769477630000   -0.09353529410000
C         1.78111137110000    1.19177791650000    0.21436509170000
C         1.50357098080000    2.62392533550000    0.25019275630000
C         2.22743293110000    3.57340929200000   -0.32905998650000
C         3.04012685620000    0.68827951080000   -0.08060626650000
H         6.11497779700000   -2.60210311660000   -0.76283918570000
H         4.44729901320000   -3.22461649970000   -0.36387630940000
H         5.36982574990000   -0.31750179330000   -0.60080801900000
H         2.43443471690000   -2.61865625860000    0.16903749160000
H         0.22723438000000   -1.79855861810000    0.69466862250000
H        -2.31150214990000    0.66847671980000    1.52371465950000
H        -1.36121394820000   -0.82175832420000    1.69759308230000
H        -1.32409740630000   -0.93580460430000   -0.87925739090000
H        -2.95370294460000    0.23097935700000   -2.14699853200000
H        -2.16317386030000    1.45019138920000   -1.13479163170000
H        -4.69256219620000    1.66459751490000   -1.22271068390000
H        -4.08807295810000    1.43994185070000    0.41793265520000
H        -5.21129602950000   -0.74892319850000   -1.39035003790000
H        -5.99779325180000   -0.09099416550000    0.05521152880000
H        -4.80587879570000   -2.26748798810000    0.50935731100000
H        -4.15905632740000   -0.92096225190000    1.47568819220000
H         0.60572074510000    2.89203752510000    0.78969623110000
H         3.11040946600000    3.36091978230000   -0.90781101550000
H         1.95263146720000    4.61155375260000   -0.25301773590000
H         3.84142013400000    1.38383208110000   -0.28106025760000
$end

$rem
BASIS = 6-31G*
GUI = 2
METHOD = B3LYP
PRINT_ORBITALS false
MOLDEN_FORMAT false
--------------------------------------------------------------

             Standard Nuclear Orientation (Angstroms)
    I     Atom           X                Y                Z
 ----------------------------------------------------------------
    1      C       5.1447253053    -2.3517563898    -0.5202304807
    2      C       4.7125740099    -1.1004746929    -0.4155866776
    3      C       3.3591477555    -0.6659384048    -0.0970486578
    4      C       2.3165307583    -1.5488176788     0.1780822030
    5      C       1.0507318958    -1.0874034561     0.4821993151
    6      C       0.7815960042     0.2759500743     0.5222340456
    7      O      -0.4312455354     0.8214217823     0.8297915572
    8      C      -1.5506893846    -0.0065022807     1.0330094936
    9      C      -2.1180370181    -0.5394239439    -0.3026890846
   10      C      -2.7867898546     0.5778541396    -1.1137057026
   11      C      -4.1589734895     0.9373753248    -0.5473582999
   12      C      -4.9904033358    -0.3353922299    -0.4123816492
   13      C      -4.2263671889    -1.3447964900     0.4418408231
   14      O      -2.9617796838    -1.6559586188    -0.1069127095
   15      C       1.8163019482     1.1931867566     0.2400369388
   16      C       1.5318419395     2.6235961551     0.2887193349
   17      C       2.2526186457     3.5819574318    -0.2796592799
   18      C       3.0784429536     0.6984916857    -0.0564687234
   19      H       6.1706641524    -2.5706369319    -0.7619714079
   20      H       4.5049772897    -3.2048168067    -0.3731912944
   21      H       5.4142145484    -0.2912386194    -0.5802127548
   22      H       2.4879115151    -2.6135014597     0.1602873177
   23      H       0.2755090550    -1.8089143028     0.6880149128
   24      H      -2.2770458420     0.6380660580     1.5338957966
   25      H      -1.3200976853    -0.8492228424     1.6960802921
   26      H      -1.2759611584    -0.9386452804    -0.8816315125
   27      H      -2.9079242174     0.2323608406    -2.1424280316
   28      H      -2.1257681582     1.4456566618    -1.1166979643
   29      H      -4.6559218022     1.6488762467    -1.2090529229
   30      H      -4.0544927858     1.4115416931     0.4309298271
   31      H      -5.1627104542    -0.7653813656    -1.4008742470
   32      H      -5.9559687008    -0.1249343062     0.0488380192
   33      H      -4.7548276530    -2.2999545624     0.4853937322
   34      H      -4.1168683086    -0.9595993223     1.4660883539
   35      H       0.6313695186     2.8823135323     0.8284395673
   36      H       3.1380508139     3.3791612518    -0.8581363247
   37      H       1.9726764707     4.6180176069    -0.1944895565
   38      H       3.8769094890     1.3997105945    -0.2482741757
 ----------------------------------------------------------------

    9    -772.1364657250      1.96e-06  Convergence criterion met
 Total energy in the final basis set =     -772.1364657250

                    Orbital Energies (a.u.)
 --------------------------------------------------------------

 Alpha MOs
 -- Occupied --
-19.1832 -19.1488 -10.2481 -10.2407 -10.2355 -10.2308 -10.1894 -10.1870
-10.1862 -10.1858 -10.1856 -10.1846 -10.1838 -10.1834 -10.1818 -10.1810
-10.1730 -10.1726  -1.0743  -1.0393  -0.8634  -0.8074  -0.8004  -0.7815
 -0.7750  -0.7331  -0.7279  -0.6921  -0.6439  -0.6365  -0.6317  -0.6047
 -0.5773  -0.5573  -0.5342  -0.5254  -0.5151  -0.4949  -0.4870  -0.4726
 -0.4605  -0.4507  -0.4457  -0.4407  -0.4359  -0.4227  -0.4163  -0.4110
 -0.4047  -0.3850  -0.3816  -0.3810  -0.3657  -0.3638  -0.3592  -0.3423
 -0.3390  -0.3345  -0.3262  -0.3209  -0.2991  -0.2933  -0.2722  -0.2504
 -0.2290  -0.1991

          Ground-State Mulliken Net Atomic Charges

     Atom                 Charge (a.u.)
  ----------------------------------------
      1 C                    -0.359638
      2 C                    -0.111433
      3 C                     0.190853
      4 C                    -0.197951
      5 C                    -0.190374
      6 C                     0.318037
      7 O                    -0.525460
      8 C                    -0.073754
      9 C                     0.115928
     10 C                    -0.282176
     11 C                    -0.280008
     12 C                    -0.271117
     13 C                    -0.034885
     14 O                    -0.480519
     15 C                     0.101251
     16 C                    -0.101491
     17 C                    -0.348252
     18 C                    -0.281631
     19 H                     0.140952
     20 H                     0.138777
     21 H                     0.124199
     22 H                     0.129768
     23 H                     0.147779
     24 H                     0.153240
     25 H                     0.153951
     26 H                     0.150608
     27 H                     0.143018
     28 H                     0.155788
     29 H                     0.142525
     30 H                     0.134399
     31 H                     0.144404
     32 H                     0.134986
     33 H                     0.146317
     34 H                     0.118811
     35 H                     0.145660
     36 H                     0.138894
     37 H                     0.140424
     38 H                     0.128124
  ----------------------------------------
  Sum of atomic charges =     0.000000

                    Cartesian Multipole Moments
 -----------------------------------------------------------------
    Charge (ESU x 10^10)
                -0.0000
    Dipole Moment (Debye)
         X      -1.9273      Y       0.2838      Z       0.2236
       Tot       1.9609
    Quadrupole Moments (Debye-Ang)
        XX     -97.0859     XY      -1.5767     YY    -106.1901
        XZ      -3.9220     YZ      -1.8182     ZZ    -109.4618

 Total job time:  78.34s(wall), 78.11s(cpu)
        *  Thank you very much for using Q-Chem.  Have a nice day.  *
