 Q-Chem 5.2, Q-Chem, Inc., Pleasanton, CA (2019)
 Q-Chem 5.2.1 for Intel X86 EM64T Linux

User input:
--------------------------------------------------------------
$molecule
0 1
C         3.64879335560000    1.21705889630000    0.29282476800000
C         2.85014492070000    0.33396954550000   -0.28930496380000
C         1.39528837890000    0.29603158010000   -0.11829813570000
C         0.68527592810000    1.49314830810000   -0.06472719750000
C        -0.68523733300000    1.49316623300000    0.06386251070000
C        -1.39522210800000    0.29605904030000    0.11802421960000
C        -2.84999567400000    0.33400357760000    0.28972675260000
C        -3.64908383540000    1.21690730940000   -0.29204151880000
C        -0.69646953860000   -0.91557916430000    0.04212359960000
C        -1.44699553390000   -2.21818277850000    0.02406792920000
C         0.69652234430000   -0.91559133100000   -0.04227108760000
C         1.44700652110000   -2.21819458320000   -0.02410676060000
H         4.71156780790000    1.22339159150000    0.11864077840000
H         3.27387379610000    1.95692249370000    0.98056161200000
H         3.27174442020000   -0.40796238020000   -0.95571137730000
H         1.22095040010000    2.42801057970000   -0.13666668060000
H        -1.22092046030000    2.42804740370000    0.13540987390000
H        -3.27113456750000   -0.40775653610000    0.95658961970000
H        -3.27470106810000    1.95664450290000   -0.98016736390000
H        -4.71174572580000    1.22317989530000   -0.11713957090000
H        -2.47347598730000   -2.06812167520000   -0.29783837820000
H        -1.45893503680000   -2.67045167530000    1.01711966750000
H        -0.97993391720000   -2.92128715340000   -0.66147898940000
H         0.97944394850000   -2.92154720640000    0.66079258940000
H         2.47321164850000   -2.06825320450000    0.29863625530000
H         1.45972791140000   -2.67005501600000   -1.01731939190000
$end

$rem
BASIS = 6-31G*
GUI = 2
METHOD = B3LYP
PRINT_ORBITALS false
MOLDEN_FORMAT false
--------------------------------------------------------------

             Standard Nuclear Orientation (Angstroms)
    I     Atom           X                Y                Z
 ----------------------------------------------------------------
    1      C       3.6490511859    -1.2454667171    -0.2895788225
    2      C       2.8498882733    -0.3623757835     0.2918420155
    3      C       1.3951841108    -0.3244349825     0.1195443750
    4      C       0.6852171337    -1.5215503255     0.0653435159
    5      C      -0.6851814917    -1.5215655780    -0.0644621830
    6      C      -1.3951155914    -0.3244570004    -0.1192538766
    7      C      -2.8497363091    -0.3623987023    -0.2922471453
    8      C      -3.6493420775    -1.2453008505     0.2888119076
    9      C      -0.6964282758     0.8871798421    -0.0427333359
   10      C      -1.4469674515     2.1897849232    -0.0253436543
   11      C       0.6964881763     0.8871892907     0.0428973046
   12      C       1.4469907195     2.1897910761     0.0253988329
   13      H       4.7116706560    -1.2518014817    -0.1144519131
   14      H       3.2747405500    -1.9853296087    -0.9776480304
   15      H       3.2708977612     0.3795553444     0.9586222198
   16      H       1.2208257373    -2.4564136408     0.1377583034
   17      H      -1.2208027514    -2.4564457049    -0.1364847892
   18      H      -3.2702818876     0.3793622083    -0.9594834493
   19      H      -3.2755714692    -1.9850387487     0.9772696949
   20      H      -4.7118483732    -1.2515713671     0.1129671405
   21      H      -2.4737334179     2.0397258377     0.2956517471
   22      H      -1.4580249422     2.6420538049    -1.0184056122
   23      H      -0.9805129233     2.8928884122     0.6606173871
   24      H       0.9800374087     2.8931445862    -0.6599151367
   25      H       2.4734815163     2.0398476801    -0.2964335098
   26      H       1.4588317208     2.6416515225     1.0186223441
 ----------------------------------------------------------------

    8    -465.6703209475      4.01e-06  Convergence criterion met
 Total energy in the final basis set =     -465.6703209475

                    Orbital Energies (a.u.)
 --------------------------------------------------------------

 Alpha MOs
 -- Occupied --
-10.1867 -10.1862 -10.1857 -10.1857 -10.1843 -10.1843 -10.1766 -10.1766
-10.1763 -10.1763 -10.1758 -10.1751  -0.8657  -0.8069  -0.7815  -0.7584
 -0.7324  -0.6871  -0.6715  -0.6225  -0.5873  -0.5546  -0.5345  -0.5015
 -0.4797  -0.4645  -0.4367  -0.4266  -0.4247  -0.4175  -0.4028  -0.3980
 -0.3928  -0.3839  -0.3782  -0.3544  -0.3474  -0.3253  -0.3229  -0.2927
 -0.2634  -0.2321  -0.2109

          Ground-State Mulliken Net Atomic Charges

     Atom                 Charge (a.u.)
  ----------------------------------------
      1 C                    -0.337034
      2 C                    -0.139883
      3 C                     0.109427
      4 C                    -0.185681
      5 C                    -0.185666
      6 C                     0.109417
      7 C                    -0.139874
      8 C                    -0.337049
      9 C                     0.060938
     10 C                    -0.538899
     11 C                     0.060946
     12 C                    -0.538893
     13 H                     0.140076
     14 H                     0.144476
     15 H                     0.136454
     16 H                     0.125286
     17 H                     0.125281
     18 H                     0.136461
     19 H                     0.144469
     20 H                     0.140076
     21 H                     0.163230
     22 H                     0.160873
     23 H                     0.160731
     24 H                     0.160723
     25 H                     0.163237
     26 H                     0.160879
  ----------------------------------------
  Sum of atomic charges =     0.000000

                    Cartesian Multipole Moments
 -----------------------------------------------------------------
    Charge (ESU x 10^10)
                 0.0000
    Dipole Moment (Debye)
         X       0.0002      Y       0.6687      Z      -0.0002
       Tot       0.6687
    Quadrupole Moments (Debye-Ang)
        XX     -67.3297     XY       0.0009     YY     -67.6271
        XZ       1.1646     YZ      -0.0005     ZZ     -74.1788

 Total job time:  29.56s(wall), 29.46s(cpu)
        *  Thank you very much for using Q-Chem.  Have a nice day.  *
