 Q-Chem 5.2, Q-Chem, Inc., Pleasanton, CA (2019)
 Q-Chem 5.2.1 for Intel X86 EM64T Linux

User input:
--------------------------------------------------------------
$molecule
0 1
C         3.94303751700000    0.25494840450000   -0.44349841540000
C         3.06309308690000   -0.47180362700000    0.23516058800000
C         1.60405613950000   -0.37397397740000    0.15612547610000
C         0.88922842040000   -1.56212657800000    0.19701328600000
C        -0.49059191350000   -1.52314211910000    0.07348940700000
N        -1.41237500620000   -2.54215284620000    0.02706108720000
C        -2.55537699100000   -1.96274379200000   -0.14185096570000
N        -2.47572306690000   -0.59924412660000   -0.20153266300000
C        -1.14993896560000   -0.28139442140000   -0.06298678070000
C        -0.46765194950000    0.93418311970000   -0.06494159700000
C        -1.16283957350000    2.20966569760000   -0.22150311350000
C        -2.34497791650000    2.50779369350000    0.30468539440000
C         0.93080216860000    0.87195812580000    0.05461891440000
N         1.65322273480000    2.05170203540000    0.08485377270000
H         5.00256990670000    0.08801457880000   -0.34155375910000
H         3.64493798920000    1.00608300690000   -1.15535898700000
H         3.42296316020000   -1.26487161770000    0.88051584300000
H         1.40043082140000   -2.50645851270000    0.29538250310000
H        -3.49092258250000   -2.48218786410000   -0.22279871230000
H        -3.22565457020000    0.04746827050000   -0.37665900930000
H        -0.65420875530000    2.94738461010000   -0.83142272590000
H        -2.87090327910000    1.83001373570000    0.95722739220000
H        -2.81633640550000    3.46049797040000    0.13188875330000
H         1.14549608360000    2.85954443320000    0.40795116840000
H         2.58122569540000    1.96769995500000    0.47166841570000
$end

$rem
BASIS = 6-31G*
GUI = 2
METHOD = B3LYP
PRINT_ORBITALS false
MOLDEN_FORMAT false
--------------------------------------------------------------

             Standard Nuclear Orientation (Angstroms)
    I     Atom           X                Y                Z
 ----------------------------------------------------------------
    1      C       3.9092321950     0.3904516137     0.4385704111
    2      C       2.9271163461     0.9730283791    -0.2389999027
    3      C       1.5005287742     0.6523463742    -0.1576552369
    4      C       0.6116570633     1.7166044317    -0.1978914373
    5      C      -0.7456246770     1.4662624672    -0.0722042506
    6      N      -1.8128924900     2.3316576090    -0.0247365282
    7      C      -2.8531055967     1.5836977637     0.1461799232
    8      N      -2.5649167699     0.2486416859     0.2062670216
    9      C      -1.2062536863     0.1380747022     0.0657805550
   10      C      -0.3453825903    -0.9583044503     0.0671451266
   11      C      -0.8362166442    -2.3253183976     0.2252841380
   12      C      -1.9593258957    -2.8017768328    -0.2989473743
   13      C       1.0267487078    -0.6821336042    -0.0546167348
   14      N       1.9217266938    -1.7369609918    -0.0855181983
   15      H       4.9304084628     0.7180525005     0.3349114081
   16      H       3.7310729884    -0.3971082071     1.1511858885
   17      H       3.1599719745     1.8115515955    -0.8852226077
   18      H       0.9716291579     2.7281778231    -0.2974231685
   19      H      -3.8572035252     1.9533602168     0.2283824554
   20      H      -3.2063775624    -0.5054560394     0.3828118990
   21      H      -0.2194269140    -2.9757968246     0.8346975293
   22      H      -2.5840632546    -2.2132087965    -0.9509328927
   23      H      -2.2785309536    -3.8154581283    -0.1250470990
   24      H       1.5436052336    -2.6133926472    -0.4075109526
   25      H       2.8252483769    -1.5116842959    -0.4738098295
 ----------------------------------------------------------------

    9    -590.0102437195      2.51e-06  Convergence criterion met
 Total energy in the final basis set =     -590.0102437195

                    Orbital Energies (a.u.)
 --------------------------------------------------------------

 Alpha MOs
 -- Occupied --
-14.3844 -14.3363 -14.3047 -10.2401 -10.2267 -10.2173 -10.1995 -10.1916
-10.1889 -10.1882 -10.1873 -10.1841 -10.1807 -10.1745  -1.0164  -0.9245
 -0.8773  -0.8346  -0.8037  -0.7690  -0.7219  -0.7152  -0.6411  -0.6154
 -0.6145  -0.5914  -0.5558  -0.5403  -0.5172  -0.5029  -0.4719  -0.4647
 -0.4466  -0.4420  -0.4374  -0.4328  -0.4108  -0.3900  -0.3884  -0.3746
 -0.3536  -0.3393  -0.3133  -0.2965  -0.2824  -0.2675  -0.2598  -0.2083
 -0.1852

          Ground-State Mulliken Net Atomic Charges

     Atom                 Charge (a.u.)
  ----------------------------------------
      1 C                    -0.365770
      2 C                    -0.148172
      3 C                     0.140727
      4 C                    -0.265233
      5 C                     0.249916
      6 N                    -0.497139
      7 C                     0.218761
      8 N                    -0.690705
      9 C                     0.243450
     10 C                     0.132159
     11 C                    -0.145289
     12 C                    -0.364295
     13 C                     0.162346
     14 N                    -0.816295
     15 H                     0.140313
     16 H                     0.164446
     17 H                     0.136585
     18 H                     0.138040
     19 H                     0.153642
     20 H                     0.329625
     21 H                     0.145107
     22 H                     0.141252
     23 H                     0.145073
     24 H                     0.323648
     25 H                     0.327807
  ----------------------------------------
  Sum of atomic charges =     0.000000

                    Cartesian Multipole Moments
 -----------------------------------------------------------------
    Charge (ESU x 10^10)
                 0.0000
    Dipole Moment (Debye)
         X      -0.7477      Y      -3.4099      Z      -0.4921
       Tot       3.5254
    Quadrupole Moments (Debye-Ang)
        XX     -64.6989     XY       3.9530     YY     -81.9867
        XZ      -3.5816     YZ       0.3164     ZZ     -83.7211

 Total job time:  40.45s(wall), 40.33s(cpu)
        *  Thank you very much for using Q-Chem.  Have a nice day.  *
