 Q-Chem 5.2, Q-Chem, Inc., Pleasanton, CA (2019)
 Q-Chem 5.2.1 for Intel X86 EM64T Linux

User input:
--------------------------------------------------------------
$molecule
0 1
C        -4.78688182250000    1.86914902020000   -0.81035472900000
C        -3.56050516490000    2.08091906960000   -0.34833066190000
C        -2.54358550690000    1.06974824010000   -0.09450569340000
C        -2.69480774630000   -0.28349951610000   -0.38802774840000
C        -1.71896855420000   -1.24473562490000   -0.14542602250000
C        -2.03125289270000   -2.61833781100000   -0.52240722330000
C        -1.25091387990000   -3.69216494090000   -0.47712930820000
C        -0.50263140710000   -0.82762320600000    0.44347641340000
O         0.43621820430000   -1.77064373190000    0.69916254830000
C         1.65169006930000   -1.39187481510000    1.31069980640000
C         2.53918118010000   -0.53019344370000    0.44387616940000
C         3.45628100940000    0.33444006190000    1.02741230540000
C         4.28112012340000    1.11372349640000    0.23653803800000
C         4.19167715540000    1.04058147220000   -1.14343814700000
C         3.27896297730000    0.18066271890000   -1.72928174690000
C         2.45868109960000   -0.60539765360000   -0.93971442200000
C        -0.32305030750000    0.51813321960000    0.74209019370000
C        -1.32244883540000    1.42971957340000    0.47212689140000
F        -1.08227014630000    2.72330992340000    0.78512989290000
H        -5.47107183150000    2.68540840340000   -0.96410569940000
H        -5.16161564870000    0.88892938010000   -1.04993537780000
H        -3.25189318600000    3.09278819180000   -0.11958117610000
H        -3.62032072650000   -0.60888142310000   -0.83699165010000
H        -3.04263684240000   -2.73716642820000   -0.89462098960000
H        -0.23671700480000   -3.66360619880000   -0.12760884260000
H        -1.62323264890000   -4.65113421940000   -0.79831420850000
H         2.15576458360000   -2.34516050910000    1.51112082640000
H         1.46234211510000   -0.90062968400000    2.27491877560000
H         3.52236892330000    0.39709400430000    2.10475061740000
H         4.99071842210000    1.78371420260000    0.69886632340000
H         4.83135228840000    1.65423933610000   -1.75994322030000
H         3.20467497850000    0.11986519420000   -2.80486640620000
H         1.74594332180000   -1.27727231200000   -1.39541406230000
H         0.59279892010000    0.88757056320000    1.17284121400000
$end

$rem
BASIS = 6-31G*
GUI = 2
METHOD = B3LYP
PRINT_ORBITALS false
MOLDEN_FORMAT false
--------------------------------------------------------------

             Standard Nuclear Orientation (Angstroms)
    I     Atom           X                Y                Z
 ----------------------------------------------------------------
    1      C       4.9419317030     1.5104553069     0.6949334484
    2      C       3.7229172752     1.8248307930     0.2736445008
    3      C       2.6253253409     0.8994617201     0.0286890423
    4      C       2.6811457818    -0.4677553015     0.2892740503
    5      C       1.6286118859    -1.3467065319     0.0553729696
    6      C       1.8457260849    -2.7483024817     0.3942085015
    7      C       0.9849409113    -3.7588100697     0.3494081792
    8      C       0.4317250525    -0.8254589628    -0.4887113842
    9      O      -0.5829162575    -1.6887424477    -0.7363933204
   10      C      -1.7824867074    -1.2052615038    -1.3039252383
   11      C      -2.5774545537    -0.2992674534    -0.3935849837
   12      C      -3.4418663693     0.6453853458    -0.9317308004
   13      C      -4.1827645376     1.4662612002    -0.1008535062
   14      C      -4.0609757914     1.3547384702     1.2740698565
   15      C      -3.2005123569     0.4150635897     1.8147490162
   16      C      -2.4646362316    -0.4122541067     0.9851698542
   17      C       0.3469276263     0.5365489739    -0.7537089216
   18      C       1.4199208347     1.3635949248    -0.4941942738
   19      F       1.2703548544     2.6785074127    -0.7728837820
   20      H       5.6902769726     2.2689553062     0.8455714863
   21      H       5.2474366033     0.4994700715     0.9028528565
   22      H       3.4860264490     2.8621239461     0.0752699758
   23      H       3.5912738715    -0.8723688568     0.7039678868
   24      H       2.8550441005    -2.9517198554     0.7340015818
   25      H      -0.0334252977    -3.6456921996     0.0304880153
   26      H       1.2919160699    -4.7503126862     0.6393942073
   27      H      -2.3630334540    -2.1128828364    -1.5093572398
   28      H      -1.5830565655    -0.7075892865    -2.2628009496
   29      H      -3.5327959671     0.7377031460    -2.0051180555
   30      H      -4.8518203616     2.1984128970    -0.5280337170
   31      H      -4.6347567109     2.0005496283     1.9217905984
   32      H      -3.1013168423     0.3240177209     2.8861818441
   33      H      -1.7927782189    -1.1463679139     1.4055941489
   34      H      -0.5497099690     0.9839303063    -1.1495639028
 ----------------------------------------------------------------

    9    -831.8501635193      2.64e-06  Convergence criterion met
 Total energy in the final basis set =     -831.8501635193

                    Orbital Energies (a.u.)
 --------------------------------------------------------------

 Alpha MOs
 -- Occupied --
-24.7053 -19.1919 -10.2692 -10.2581 -10.2558 -10.2012 -10.1956 -10.1940
-10.1935 -10.1929 -10.1922 -10.1915 -10.1905 -10.1896 -10.1893 -10.1873
-10.1847 -10.1752 -10.1677  -1.2158  -1.0850  -0.8717  -0.8651  -0.8048
 -0.7835  -0.7790  -0.7531  -0.7343  -0.7266  -0.6961  -0.6329  -0.6229
 -0.6138  -0.5952  -0.5879  -0.5499  -0.5435  -0.5240  -0.5197  -0.4935
 -0.4783  -0.4742  -0.4639  -0.4593  -0.4503  -0.4434  -0.4410  -0.4342
 -0.4263  -0.4177  -0.4066  -0.3930  -0.3920  -0.3795  -0.3665  -0.3598
 -0.3535  -0.3484  -0.3450  -0.3356  -0.3196  -0.3010  -0.2752  -0.2574
 -0.2511  -0.2286  -0.2033

          Ground-State Mulliken Net Atomic Charges

     Atom                 Charge (a.u.)
  ----------------------------------------
      1 C                    -0.354570
      2 C                    -0.111806
      3 C                     0.119763
      4 C                    -0.305734
      5 C                     0.157461
      6 C                    -0.111268
      7 C                    -0.363222
      8 C                     0.334775
      9 O                    -0.524794
     10 C                    -0.112041
     11 C                     0.105281
     12 C                    -0.176892
     13 C                    -0.126544
     14 C                    -0.125066
     15 C                    -0.126688
     16 C                    -0.159993
     17 C                    -0.262801
     18 C                     0.298998
     19 F                    -0.293556
     20 H                     0.143760
     21 H                     0.139184
     22 H                     0.140766
     23 H                     0.135739
     24 H                     0.123019
     25 H                     0.165175
     26 H                     0.132484
     27 H                     0.175425
     28 H                     0.153949
     29 H                     0.125342
     30 H                     0.132504
     31 H                     0.131585
     32 H                     0.134383
     33 H                     0.148490
     34 H                     0.156891
  ----------------------------------------
  Sum of atomic charges =     0.000000

                    Cartesian Multipole Moments
 -----------------------------------------------------------------
    Charge (ESU x 10^10)
                 0.0000
    Dipole Moment (Debye)
         X      -1.7285      Y      -0.2842      Z      -0.1659
       Tot       1.7595
    Quadrupole Moments (Debye-Ang)
        XX    -100.2582     XY      -3.4725     YY    -109.5923
        XZ       4.3715     YZ       0.1816     ZZ    -106.0700

 Total job time:  74.55s(wall), 73.83s(cpu)
        *  Thank you very much for using Q-Chem.  Have a nice day.  *
