 Q-Chem 5.2, Q-Chem, Inc., Pleasanton, CA (2019)
 Q-Chem 5.2.1 for Intel X86 EM64T Linux

User input:
--------------------------------------------------------------
$molecule
0 1
C         3.92201751430000    0.13321394020000    0.57278879480000
C         3.06922192520000   -0.42825083150000   -0.27381852740000
C         1.60349694230000   -0.34672794920000   -0.20252821320000
C         0.89870196420000   -1.53293386100000   -0.30896980600000
C        -0.48202444820000   -1.50737889940000   -0.17137603040000
N        -1.39801526600000   -2.53194598010000   -0.17479331100000
C        -2.54193515840000   -1.96955446180000    0.04134700800000
N        -2.46625001670000   -0.61196718500000    0.18324458430000
C        -1.14376713840000   -0.27985385080000    0.04753516640000
C        -0.46860095830000    0.93973196970000    0.11798675010000
C        -1.17548844490000    2.19375511210000    0.35729384590000
C        -2.36832409650000    2.51092379340000   -0.13226602530000
C         0.92923262490000    0.89067619420000   -0.02161154180000
N         1.63877213520000    2.06265671470000   -0.12539754540000
H         4.98591373680000   -0.00429420640000    0.47693512300000
H         3.59693291890000    0.72104249970000    1.41710241100000
H         3.45119528560000   -1.06516810560000   -1.06261686810000
H         1.41489173710000   -2.46730053510000   -0.46157338870000
H        -3.47431885430000   -2.49728972890000    0.10161360930000
H        -3.21753763830000    0.02069354530000    0.39898827100000
H        -0.67531302210000    2.90654239860000    1.00555357510000
H        -2.89244314410000    1.87202388480000   -0.82347523660000
H        -2.84725983660000    3.44509924580000    0.10726207480000
H         1.22111462420000    2.90481507850000    0.22786035110000
H         2.64039430530000    1.99693567560000   -0.07684121070000
$end

$rem
BASIS = 6-31G*
GUI = 2
METHOD = B3LYP
PRINT_ORBITALS false
MOLDEN_FORMAT false
--------------------------------------------------------------

             Standard Nuclear Orientation (Angstroms)
    I     Atom           X                Y                Z
 ----------------------------------------------------------------
    1      C      -3.8831577106     0.4144607822     0.5429104097
    2      C      -2.9508584033     0.8996915728    -0.2661730508
    3      C      -1.5113071564     0.6125178735    -0.1933617275
    4      C      -0.6486324938     1.6940612644    -0.2280972871
    5      C       0.7136304664     1.4702218525    -0.0862308922
    6      N       1.7619522477     2.3569269676    -0.0265313049
    7      C       2.8147964581     1.6305465259     0.1617347308
    8      N       2.5511567558     0.2906076605     0.2246975872
    9      C       1.1973034831     0.1526335943     0.0643175719
   10      C       0.3598178213    -0.9639734001     0.0613248573
   11      C       0.8843033066    -2.3151546632     0.2309008469
   12      C       2.0280116628    -2.7658944735    -0.2709821585
   13      C      -1.0161273744    -0.7144193684    -0.0812601421
   14      N      -1.8789651724    -1.7693473712    -0.2555989929
   15      H      -4.9167282358     0.7028578542     0.4505486894
   16      H      -3.6524891663    -0.2594659415     1.3532823525
   17      H      -3.2317903771     1.6268766826    -1.0185354147
   18      H      -1.0293313782     2.6979137370    -0.3287421547
   19      H       3.8101585471     2.0201211229     0.2564019204
   20      H       3.2054674673    -0.4509785949     0.4068111427
   21      H       0.2828322803    -2.9875143615     0.8347608361
   22      H       2.6435484736    -2.1674724564    -0.9218812038
   23      H       2.3707750374    -3.7693280256    -0.0837088149
   24      H      -1.5856148352    -2.6797624107     0.0502599340
   25      H      -2.8625149895    -1.5687077667    -0.2076672634
 ----------------------------------------------------------------

    9    -590.0055149656      2.65e-06  Convergence criterion met
 Total energy in the final basis set =     -590.0055149656

                    Orbital Energies (a.u.)
 --------------------------------------------------------------

 Alpha MOs
 -- Occupied --
-14.3824 -14.3358 -14.3029 -10.2378 -10.2275 -10.2155 -10.2000 -10.1920
-10.1894 -10.1864 -10.1846 -10.1828 -10.1799 -10.1790  -1.0145  -0.9244
 -0.8753  -0.8336  -0.8034  -0.7695  -0.7216  -0.7147  -0.6411  -0.6153
 -0.6129  -0.5905  -0.5568  -0.5418  -0.5208  -0.5030  -0.4750  -0.4656
 -0.4474  -0.4406  -0.4358  -0.4334  -0.4094  -0.3925  -0.3898  -0.3692
 -0.3591  -0.3403  -0.3105  -0.2939  -0.2810  -0.2660  -0.2583  -0.2089
 -0.1804

          Ground-State Mulliken Net Atomic Charges

     Atom                 Charge (a.u.)
  ----------------------------------------
      1 C                    -0.354150
      2 C                    -0.144328
      3 C                     0.120883
      4 C                    -0.250945
      5 C                     0.244284
      6 N                    -0.496942
      7 C                     0.217152
      8 N                    -0.690575
      9 C                     0.249524
     10 C                     0.134038
     11 C                    -0.131423
     12 C                    -0.366479
     13 C                     0.170096
     14 N                    -0.812284
     15 H                     0.143767
     16 H                     0.144276
     17 H                     0.142179
     18 H                     0.137200
     19 H                     0.152474
     20 H                     0.328744
     21 H                     0.125958
     22 H                     0.142112
     23 H                     0.142864
     24 H                     0.321639
     25 H                     0.329937
  ----------------------------------------
  Sum of atomic charges =     0.000000

                    Cartesian Multipole Moments
 -----------------------------------------------------------------
    Charge (ESU x 10^10)
                -0.0000
    Dipole Moment (Debye)
         X       0.2913      Y      -3.4823      Z       1.0110
       Tot       3.6377
    Quadrupole Moments (Debye-Ang)
        XX     -63.1428     XY      -2.8798     YY     -82.0478
        XZ       0.5109     YZ      -3.4867     ZZ     -84.2035

 Total job time:  40.43s(wall), 40.31s(cpu)
        *  Thank you very much for using Q-Chem.  Have a nice day.  *
