 Q-Chem 5.2, Q-Chem, Inc., Pleasanton, CA (2019)
 Q-Chem 5.2.1 for Intel X86 EM64T Linux

User input:
--------------------------------------------------------------
$molecule
0 1
C         1.79213126810000   -6.25171418830000    0.52069588090000
O         2.38651867460000   -5.23131285150000   -0.24277520580000
C         1.89877189270000   -3.96353378330000   -0.12575463140000
C         2.52115431890000   -2.99535160950000   -0.91635007110000
C         2.10401363760000   -1.68438598870000   -0.88212453650000
C         1.05508924460000   -1.29716244610000   -0.04697260540000
N         0.63972674710000    0.04342415130000   -0.00165110250000
C        -0.70709352270000    0.36425077790000    0.08386849750000
C        -1.12801266700000    1.52175975130000    0.74676824130000
C        -2.46541501720000    1.83327095550000    0.82783966690000
C        -3.44211582300000    1.00968734590000    0.25873507920000
C        -4.83246760900000    1.40014286670000    0.38702400620000
C        -5.91415421260000    0.76843954420000   -0.04716660010000
F        -5.98411379170000   -0.38370035770000   -0.70872610970000
F        -7.15246162740000    1.23341413220000    0.13604812820000
C        -3.01697671980000   -0.14573734480000   -0.40385764860000
C        -1.67995240480000   -0.46062373510000   -0.49040414150000
C         1.61371982820000    1.05384729660000   -0.04543107590000
C         2.81295284870000    0.90875651090000    0.64318316910000
C         3.78692629190000    1.88989332780000    0.59226681010000
C         3.57321617080000    3.04810054200000   -0.14641515090000
O         4.45733922750000    4.07943007070000   -0.26314150920000
C         5.68965371150000    3.98551700540000    0.40738439640000
C         2.36896932160000    3.19646254250000   -0.83759486710000
C         1.40671708540000    2.21369437060000   -0.79391255310000
C         0.44360279650000   -2.26091739470000    0.74755840880000
C         0.85272631660000   -3.58179777220000    0.70674233770000
H         2.32752211100000   -7.16371126730000    0.26131622250000
H         0.73206822500000   -6.37320268230000    0.27489217090000
H         1.89702721240000   -6.06496050410000    1.59459129760000
H         3.32985671660000   -3.30260193550000   -1.56006128400000
H         2.58800433330000   -0.94643125940000   -1.50412494020000
H        -0.39398643570000    2.16796403390000    1.20445570780000
H        -2.76794127120000    2.72870249720000    1.35119883700000
H        -5.02568691190000    2.32814381040000    0.90620518420000
H        -3.73549244580000   -0.80182084220000   -0.86695931790000
H        -1.37237822960000   -1.35110093360000   -1.01791186220000
H         2.98709389520000    0.01517795070000    1.22416993130000
H         4.70377974880000    1.73883027330000    1.13963567280000
H         6.22443547510000    4.90413244430000    0.17111784140000
H         6.27401761540000    3.12778592010000    0.05830218850000
H         5.55418028430000    3.91565396100000    1.49175910080000
H         2.21675564520000    4.09503098180000   -1.41395061260000
H         0.48531031110000    2.33536805570000   -1.34348733570000
H        -0.36289274660000   -1.97425032530000    1.40626884950000
H         0.35111006330000   -4.29909846200000    1.33675785600000
$end

$rem
BASIS = 6-31G*
GUI = 2
METHOD = B3LYP
PRINT_ORBITALS false
MOLDEN_FORMAT false
--------------------------------------------------------------

             Standard Nuclear Orientation (Angstroms)
    I     Atom           X                Y                Z
 ----------------------------------------------------------------
    1      C      -1.5643128210    -6.2707266370    -0.4949018807
    2      O      -2.1790083249    -5.2611838789     0.2669223998
    3      C      -1.7171263054    -3.9839886865     0.1473734793
    4      C      -2.3587418736    -3.0271720513     0.9364293359
    5      C      -1.9682980553    -1.7080785908     0.8996236140
    6      C      -0.9277446753    -1.3011992674     0.0633455013
    7      N      -0.5396836328     0.0474524152     0.0153899545
    8      C       0.8003193545     0.3953794964    -0.0712524457
    9      C       1.1974297179     1.5599616506    -0.7364499993
   10      C       2.5282073192     1.8983923953    -0.8186233500
   11      C       3.5216204396     1.0958486904    -0.2483879322
   12      C       4.9037179636     1.5141942820    -0.3779450679
   13      C       5.9981539055     0.9053714508     0.0569816018
   14      F       6.0917117718    -0.2438859211     0.7206352010
   15      F       7.2267067875     1.3950342330    -0.1275785070
   16      C       3.1202485877    -0.0667357994     0.4165004318
   17      C       1.7899193811    -0.4085232298     0.5041549098
   18      C      -1.5339614088     1.0379857687     0.0576926771
   19      C      -2.7302497896     0.8673201145    -0.6301794741
   20      C      -3.7239111786     1.8285868201    -0.5806864244
   21      C      -3.5334804158     2.9922562602     0.1557757710
   22      O      -4.4383047806     4.0056499714     0.2709507413
   23      C      -5.6686997147     3.8855137019    -0.3989143380
   24      C      -2.3322446929     3.1662989211     0.8462053816
   25      C      -1.3502664127     2.2031767750     0.8039539982
   26      C      -0.2971140740    -2.2538179433    -0.7296497778
   27      C      -0.6793388619    -3.5826492510    -0.6862384283
   28      H      -2.0809968231    -7.1929169281    -0.2336308662
   29      H      -0.5019152802    -6.3702278012    -0.2492933366
   30      H      -1.6733600977    -6.0881268331    -1.5690980764
   31      H      -3.1608137545    -3.3495751602     1.5810248600
   32      H      -2.4669394635    -0.9789457579     1.5204542964
   33      H       0.4502799458     2.1902925451    -1.1950374846
   34      H       2.8123164423     2.7988076478    -1.3437509349
   35      H       5.0778833225     2.4449622078    -0.8989115180
   36      H       3.8520934269    -0.7072485293     0.8805264379
   37      H       1.5006643381    -1.3040799076     1.0334239025
   38      H      -2.8864324283    -0.0306810222    -1.2094499695
   39      H      -4.6377064875     1.6579405901    -1.1274139409
   40      H      -6.2219250940     4.7935255800    -0.1641296424
   41      H      -6.2354156596     3.0167505076    -0.0480215841
   42      H      -5.5322242557     3.8164074379    -1.4832118836
   43      H      -2.1980878060     4.0688354546     1.4208443327
   44      H      -0.4313216423     2.3445361978     1.3529397845
   45      H       0.5031636684    -1.9520663448    -1.3892057058
   46      H      -0.1634974485    -4.2907895605    -1.3151292270
 ----------------------------------------------------------------

    9   -1254.6053265541      4.60e-06  Convergence criterion met
 Total energy in the final basis set =    -1254.6053265541

                    Orbital Energies (a.u.)
 --------------------------------------------------------------

 Alpha MOs
 -- Occupied --
-24.7353 -24.7245 -19.1758 -19.1757 -14.3613 -10.3453 -10.2419 -10.2419
-10.2394 -10.2394 -10.2233 -10.2184 -10.2184 -10.1948 -10.1930 -10.1864
-10.1863 -10.1856 -10.1854 -10.1853 -10.1851 -10.1848 -10.1824 -10.1823
-10.1821 -10.1795 -10.1794  -1.2749  -1.2145  -1.0658  -1.0658  -0.9749
 -0.8613  -0.8577  -0.8418  -0.7976  -0.7667  -0.7580  -0.7510  -0.7476
 -0.7435  -0.7230  -0.7020  -0.6813  -0.6401  -0.6252  -0.6186  -0.6097
 -0.6004  -0.5969  -0.5715  -0.5624  -0.5426  -0.5402  -0.5303  -0.5207
 -0.5120  -0.5091  -0.4878  -0.4801  -0.4704  -0.4703  -0.4681  -0.4509
 -0.4494  -0.4458  -0.4400  -0.4319  -0.4278  -0.4260  -0.4248  -0.4216
 -0.4161  -0.4146  -0.4081  -0.4011  -0.3864  -0.3819  -0.3797  -0.3762
 -0.3676  -0.3636  -0.3563  -0.3412  -0.3366  -0.3264  -0.3257  -0.3220
 -0.3073  -0.2682  -0.2587  -0.2507  -0.2485  -0.2247  -0.2195  -0.1659

          Ground-State Mulliken Net Atomic Charges

     Atom                 Charge (a.u.)
  ----------------------------------------
      1 C                    -0.213400
      2 O                    -0.507240
      3 C                     0.378970
      4 C                    -0.184428
      5 C                    -0.164521
      6 C                     0.273749
      7 N                    -0.655746
      8 C                     0.306861
      9 C                    -0.182253
     10 C                    -0.205553
     11 C                     0.197448
     12 C                    -0.298446
     13 C                     0.533462
     14 F                    -0.239898
     15 F                    -0.254297
     16 C                    -0.206083
     17 C                    -0.181134
     18 C                     0.271829
     19 C                    -0.173053
     20 C                    -0.205358
     21 C                     0.379010
     22 O                    -0.507012
     23 C                    -0.213304
     24 C                    -0.184550
     25 C                    -0.165393
     26 C                    -0.174217
     27 C                    -0.205760
     28 H                     0.168659
     29 H                     0.149732
     30 H                     0.149108
     31 H                     0.137855
     32 H                     0.147770
     33 H                     0.147024
     34 H                     0.126397
     35 H                     0.155134
     36 H                     0.137365
     37 H                     0.147285
     38 H                     0.146659
     39 H                     0.131860
     40 H                     0.168743
     41 H                     0.149273
     42 H                     0.149361
     43 H                     0.138569
     44 H                     0.149312
     45 H                     0.148068
     46 H                     0.132142
  ----------------------------------------
  Sum of atomic charges =     0.000000

                    Cartesian Multipole Moments
 -----------------------------------------------------------------
    Charge (ESU x 10^10)
                 0.0000
    Dipole Moment (Debye)
         X      -2.6203      Y      -0.8886      Z      -1.6815
       Tot       3.2377
    Quadrupole Moments (Debye-Ang)
        XX    -151.6232     XY      -5.3878     YY    -136.6872
        XZ       2.9418     YZ       1.7316     ZZ    -152.3988

 Total job time:  141.38s(wall), 140.86s(cpu)
        *  Thank you very much for using Q-Chem.  Have a nice day.  *
