 Q-Chem 5.2, Q-Chem, Inc., Pleasanton, CA (2019)
 Q-Chem 5.2.1 for Intel X86 EM64T Linux

User input:
--------------------------------------------------------------
$molecule
0 1
C        -3.09468380360000   -3.11382576580000   -0.33804933370000
C        -3.19129644610000   -1.84888956190000    0.05777547700000
C        -2.07959083030000   -0.93540613640000    0.01970315710000
N        -0.86104450920000   -1.18749938530000   -0.37303319480000
C        -0.17569310210000   -0.02466311640000   -0.21867118870000
C         1.26791450770000    0.05659577870000   -0.54363586480000
O         1.75619237540000   -0.26121410120000   -1.59391387120000
O         1.95497632010000    0.53982647300000    0.49877580350000
C         3.37134712510000    0.65516269610000    0.34004480580000
C         4.07084190890000   -0.66533624260000    0.62596762380000
C        -1.03902286470000    0.93939723690000    0.27438347080000
C        -0.92714797630000    2.33881186560000    0.58823956100000
C         0.09169314200000    3.12385328050000    0.25439224820000
O        -2.24590343900000    0.34099668230000    0.42322866180000
H        -3.93688714900000   -3.78194008760000   -0.30358291680000
H        -2.16035676460000   -3.49899973840000   -0.70695357670000
H        -4.11384392790000   -1.42744703710000    0.43122687350000
H         3.67243410180000    1.42577841250000    1.05293058040000
H         3.58782125350000    0.98332577440000   -0.68229955580000
H         3.82116583910000   -1.01379383770000    1.62512205900000
H         5.14637261920000   -0.53152988130000    0.55300046140000
H         3.75779935290000   -1.41367338240000   -0.09777237040000
H        -1.78249552840000    2.73750264910000    1.11756108950000
H         0.93915002800000    2.75788336540000   -0.29681105720000
H         0.10093589660000    4.16510769600000    0.52382037470000
$end

$rem
BASIS = 6-31G*
GUI = 2
METHOD = B3LYP
PRINT_ORBITALS false
MOLDEN_FORMAT false
--------------------------------------------------------------

             Standard Nuclear Orientation (Angstroms)
    I     Atom           X                Y                Z
 ----------------------------------------------------------------
    1      C       4.0007690703    -1.9163026114    -0.0807319132
    2      C       3.6615849385    -0.6450457666    -0.2676410966
    3      C       2.3126412526    -0.1689088253    -0.1081563268
    4      N       1.2590988886    -0.8684818840     0.2132375246
    5      C       0.2238026685     0.0110319865     0.2316618753
    6      C      -1.1542764640    -0.4421647860     0.5345126136
    7      O      -1.4755546486    -1.0648188065     1.5100045846
    8      O      -1.9961751441    -0.0557040601    -0.4319462029
    9      C      -3.3652662540    -0.4420036241    -0.2871483754
   10      C      -3.5989494642    -1.8570649558    -0.7948449802
   11      C       0.7040349705     1.2713254273    -0.0828073920
   12      C       0.1264846510     2.5858193163    -0.1718263974
   13      C      -1.0827474890     2.9265938414     0.2610842520
   14      O       2.0351786107     1.1372905711    -0.2993486161
   15      H       5.0146221734    -2.2538710949    -0.2032903079
   16      H       3.2584915734    -2.6419111793     0.2019917489
   17      H       4.3806342027     0.1111275313    -0.5493212390
   18      H      -3.9269982991     0.2876627212    -0.8743044121
   19      H      -3.6441469002    -0.3692861664     0.7695813935
   20      H      -3.2812869309    -1.9413322490    -1.8312136207
   21      H      -4.6553921769    -2.0999034025    -0.7244678432
   22      H      -3.0329311464    -2.5637559793    -0.1931683585
   23      H       0.7845159903     3.3231361789    -0.6124097116
   24      H      -1.7434100073     2.2188867789     0.7286502762
   25      H      -1.4438485245     3.9347983991     0.1609977209
 ----------------------------------------------------------------

    9    -668.0658247582      9.16e-06  Convergence criterion met
 Total energy in the final basis set =     -668.0658247582

                    Orbital Energies (a.u.)
 --------------------------------------------------------------

 Alpha MOs
 -- Occupied --
-19.2378 -19.1938 -19.1383 -14.3334 -10.3201 -10.2809 -10.2618 -10.2441
-10.2288 -10.2093 -10.2076 -10.1956 -10.1955 -10.1802  -1.1522  -1.1117
 -1.0224  -0.9344  -0.8357  -0.7961  -0.7792  -0.7379  -0.6927  -0.6439
 -0.6395  -0.5979  -0.5700  -0.5612  -0.5341  -0.4986  -0.4913  -0.4871
 -0.4701  -0.4618  -0.4512  -0.4426  -0.4308  -0.4226  -0.4052  -0.3874
 -0.3810  -0.3779  -0.3689  -0.3452  -0.3418  -0.3237  -0.3027  -0.2932
 -0.2902  -0.2744  -0.2148

          Ground-State Mulliken Net Atomic Charges

     Atom                 Charge (a.u.)
  ----------------------------------------
      1 C                    -0.327705
      2 C                    -0.116228
      3 C                     0.508790
      4 N                    -0.493970
      5 C                     0.158405
      6 C                     0.535373
      7 O                    -0.455894
      8 O                    -0.440480
      9 C                    -0.049645
     10 C                    -0.464148
     11 C                     0.312890
     12 C                    -0.117044
     13 C                    -0.339285
     14 O                    -0.475831
     15 H                     0.154276
     16 H                     0.182442
     17 H                     0.150093
     18 H                     0.152897
     19 H                     0.166785
     20 H                     0.160371
     21 H                     0.152080
     22 H                     0.182113
     23 H                     0.150974
     24 H                     0.158945
     25 H                     0.153797
  ----------------------------------------
  Sum of atomic charges =     0.000000

                    Cartesian Multipole Moments
 -----------------------------------------------------------------
    Charge (ESU x 10^10)
                -0.0000
    Dipole Moment (Debye)
         X      -0.1430      Y       1.8332      Z      -1.8265
       Tot       2.5918
    Quadrupole Moments (Debye-Ang)
        XX     -63.3859     XY      -2.3764     YY     -76.3104
        XZ       0.9569     YZ       2.7502     ZZ     -85.8100

 Total job time:  35.49s(wall), 34.88s(cpu)
        *  Thank you very much for using Q-Chem.  Have a nice day.  *
