 Q-Chem 5.2, Q-Chem, Inc., Pleasanton, CA (2019)
 Q-Chem 5.2.1 for Intel X86 EM64T Linux

User input:
--------------------------------------------------------------
$molecule
0 1
C        -2.56598643930000    4.59726346590000   -1.96676497230000
C        -2.24053000920000    3.34592024870000   -2.26687590650000
C        -1.21362232990000    2.52989595510000   -1.62701430130000
C        -0.32316162740000    3.04084451930000   -0.68936419710000
C         0.64453012700000    2.23006100580000   -0.09990080100000
C         1.58898789720000    2.71896264940000    0.90067945400000
C         1.86761683330000    3.99002842760000    1.16006882260000
C         0.70406191880000    0.88672541400000   -0.45591881310000
C        -0.17657776220000    0.35975189140000   -1.39622909900000
O        -0.02523124650000   -0.96712488420000   -1.67929071120000
C        -1.12990279410000   -1.69632593810000   -2.17117752860000
C        -0.93693005220000   -3.16298765110000   -1.78562802450000
C        -1.24062687630000   -3.45140532080000   -0.31363581000000
C        -0.39501918010000   -2.60983118830000    0.64038603660000
C        -0.48528260920000   -3.08661903790000    2.08846051450000
C         0.22578399810000   -2.10327682050000    3.02757112980000
C         1.66607636940000   -1.86209855190000    2.61408188620000
O         2.10336520060000   -0.79565293080000    2.29391684420000
O         2.45677139930000   -2.94986852440000    2.63687918110000
C        -1.13000134880000    1.18030468470000   -1.98069816580000
H        -3.34455502440000    5.11611541750000   -2.49963658890000
H        -2.08163566390000    5.15419093280000   -1.18340995700000
H        -2.78186506830000    2.84439899870000   -3.06081667150000
H        -0.38665127760000    4.07849696990000   -0.40719123370000
H         2.09988070810000    1.93727830630000    1.44827870860000
H         1.40910413840000    4.80785338500000    0.62933889790000
H         2.58504934630000    4.26348872940000    1.91484971840000
H         1.43322912150000    0.23467021320000   -0.00075817700000
H        -1.18261425220000   -1.60396022440000   -3.26590292210000
H        -2.06616210930000   -1.31343130760000   -1.74404102570000
H         0.09911205810000   -3.42782178300000   -2.00215242260000
H        -1.58664315190000   -3.77679303620000   -2.41213618530000
H        -1.04950949530000   -4.51169023100000   -0.12748063290000
H        -2.30036056650000   -3.26858973240000   -0.11806162350000
H        -0.72035151520000   -1.57063996530000    0.60052958820000
H         0.64529273780000   -2.63658837250000    0.31106513370000
H        -0.05429562910000   -4.08926203310000    2.17444281570000
H        -1.53287603300000   -3.15939746830000    2.38906216780000
H         0.21453223180000   -2.48258190770000    4.05357779470000
H        -0.28675107060000   -1.14091088420000    3.00926241260000
H         1.97524796730000   -3.74543940350000    2.89898047680000
H        -1.81464215080000    0.78686248120000   -2.71800491650000
$end

$rem
BASIS = 6-31G*
GUI = 2
METHOD = B3LYP
PRINT_ORBITALS false
MOLDEN_FORMAT false
--------------------------------------------------------------

             Standard Nuclear Orientation (Angstroms)
    I     Atom           X                Y                Z
 ----------------------------------------------------------------
    1      C       5.4471215448     0.6798473082     1.2269006923
    2      C       4.3963301123     1.2634789132     0.6638200384
    3      C       3.1880328185     0.6081648594     0.1734741972
    4      C       3.0576051654    -0.7743686874     0.1044377194
    5      C       1.8876572126    -1.3637075244    -0.3700787245
    6      C       1.6999427142    -2.8098622719    -0.4448173133
    7      C       2.6550007797    -3.7284657346    -0.3773124175
    8      C       0.8361201265    -0.5450279265    -0.7686723069
    9      C       0.9513814564     0.8408819876    -0.7105404662
   10      O      -0.1357386600     1.5494832727    -1.1344339587
   11      C      -0.3374432896     2.8586768167    -0.6452371138
   12      C      -1.8351755652     3.1591832746    -0.7042064181
   13      C      -2.6369472721     2.4830427976     0.4103220822
   14      C      -2.4724217255     0.9643887777     0.4191760359
   15      C      -3.4766325182     0.2657183146     1.3334047281
   16      C      -3.1516777316    -1.2291937996     1.4523523700
   17      C      -3.0767716657    -1.9048610435     0.0953537394
   18      O      -2.0955627748    -2.4344264617    -0.3380317921
   19      O      -4.2175767715    -1.8843984895    -0.6167606156
   20      C       2.1248099178     1.4140604937    -0.2431438913
   21      H       6.2948778185     1.2543717920     1.5594055299
   22      H       5.5089657607    -0.3829545981     1.3851295074
   23      H       4.4001128881     2.3413203177     0.5491346155
   24      H       3.8706470214    -1.4013191341     0.4304303621
   25      H       0.6714978028    -3.1173959225    -0.5849277628
   26      H       3.6970769173    -3.4794037450    -0.2642139909
   27      H       2.4280942546    -4.7786260915    -0.4470318666
   28      H      -0.0863519916    -0.9776359839    -1.1235348989
   29      H       0.2109295766     3.5803270925    -1.2683275478
   30      H       0.0247842848     2.9447516088     0.3877283793
   31      H      -2.2022043074     2.8196652766    -1.6739592826
   32      H      -1.9769074711     4.2396780453    -0.6422406575
   33      H      -3.6923002832     2.7320990766     0.2703767860
   34      H      -2.3285632388     2.8879969771     1.3775954130
   35      H      -1.4676613255     0.7054928342     0.7520085641
   36      H      -2.5831070673     0.5889048193    -0.5997339909
   37      H      -4.4910460199     0.4152134000     0.9499309011
   38      H      -3.4403701886     0.7102666761     2.3304863864
   39      H      -3.9111954705    -1.7360446056     2.0547838538
   40      H      -2.1834388964    -1.3578856932     1.9372519017
   41      H      -4.9257889841    -1.4141089253    -0.1576766187
   42      H       2.2313820885     2.4882808795    -0.2002023611
 ----------------------------------------------------------------

    9    -886.6921417203      4.82e-06  Convergence criterion met
 Total energy in the final basis set =     -886.6921417203

                    Orbital Energies (a.u.)
 --------------------------------------------------------------

 Alpha MOs
 -- Occupied --
-19.1977 -19.1680 -19.1338 -10.3178 -10.2395 -10.2369 -10.2046 -10.2019
-10.1892 -10.1878 -10.1865 -10.1851 -10.1851 -10.1808 -10.1784 -10.1748
-10.1744 -10.1713 -10.1697 -10.1674  -1.1069  -1.0608  -1.0233  -0.8574
 -0.8255  -0.7972  -0.7936  -0.7667  -0.7365  -0.7176  -0.7099  -0.6710
 -0.6331  -0.6230  -0.6179  -0.6052  -0.5794  -0.5609  -0.5435  -0.5221
 -0.5069  -0.4920  -0.4862  -0.4809  -0.4762  -0.4669  -0.4594  -0.4529
 -0.4334  -0.4297  -0.4217  -0.4164  -0.4132  -0.4016  -0.3971  -0.3848
 -0.3797  -0.3716  -0.3680  -0.3599  -0.3580  -0.3517  -0.3467  -0.3363
 -0.3349  -0.3280  -0.3233  -0.3165  -0.3063  -0.3009  -0.2689  -0.2533
 -0.2127  -0.2079

          Ground-State Mulliken Net Atomic Charges

     Atom                 Charge (a.u.)
  ----------------------------------------
      1 C                    -0.352376
      2 C                    -0.114948
      3 C                     0.182603
      4 C                    -0.252868
      5 C                     0.167736
      6 C                    -0.128255
      7 C                    -0.354165
      8 C                    -0.266279
      9 C                     0.381211
     10 O                    -0.523124
     11 C                    -0.034240
     12 C                    -0.279027
     13 C                    -0.265585
     14 C                    -0.256564
     15 C                    -0.282729
     16 C                    -0.380527
     17 C                     0.598162
     18 O                    -0.438927
     19 O                    -0.559304
     20 C                    -0.271284
     21 H                     0.141031
     22 H                     0.144159
     23 H                     0.122163
     24 H                     0.120077
     25 H                     0.163800
     26 H                     0.138676
     27 H                     0.142137
     28 H                     0.167484
     29 H                     0.136380
     30 H                     0.135568
     31 H                     0.155876
     32 H                     0.135811
     33 H                     0.129475
     34 H                     0.131437
     35 H                     0.158907
     36 H                     0.158952
     37 H                     0.118275
     38 H                     0.149788
     39 H                     0.157223
     40 H                     0.182270
     41 H                     0.413768
     42 H                     0.127231
  ----------------------------------------
  Sum of atomic charges =     0.000000

                    Cartesian Multipole Moments
 -----------------------------------------------------------------
    Charge (ESU x 10^10)
                 0.0000
    Dipole Moment (Debye)
         X      -3.0272      Y       3.1688      Z       2.8537
       Tot       5.2296
    Quadrupole Moments (Debye-Ang)
        XX     -99.6779     XY      -2.5393     YY    -116.1371
        XZ      -5.1304     YZ      -4.4601     ZZ    -123.0740

 Total job time:  89.82s(wall), 89.50s(cpu)
        *  Thank you very much for using Q-Chem.  Have a nice day.  *
