 Q-Chem 5.2, Q-Chem, Inc., Pleasanton, CA (2019)
 Q-Chem 5.2.1 for Intel X86 EM64T Linux

User input:
--------------------------------------------------------------
$molecule
0 1
C        -5.67214470740000   -0.86985369310000   -0.02581821840000
C        -4.82292481460000    0.15164456360000   -0.00083694390000
C        -3.36966587000000    0.07785743760000    0.00414249860000
C        -2.63002583340000    1.26365162220000    0.01068974370000
C        -1.25344239050000    1.24508325770000    0.01258307610000
C        -0.54435694660000    0.03834659340000    0.00928394330000
C         0.90183712600000    0.08413279000000    0.00875512490000
C         1.73209323470000   -0.97315205070000    0.01319013210000
C         3.17274191410000   -0.92482191260000    0.00960729700000
C         3.95913138200000    0.14635279530000   -0.00538070100000
F         3.59503606950000    1.42392702040000   -0.01993832500000
F         5.28983604810000    0.07543592400000   -0.00841305970000
C        -1.28642014740000   -1.14831268830000    0.00491479820000
C        -2.66273853270000   -1.12790224410000    0.00227379440000
H        -6.73679760930000   -0.71096180760000   -0.02834477090000
H        -5.35092844580000   -1.89703786010000   -0.04554545830000
H        -5.21993105470000    1.15975058130000    0.01603016300000
H        -3.15104186750000    2.21094196610000    0.01313598570000
H        -0.70588543830000    2.17698023100000    0.01672526760000
H         1.31715287410000    1.08213878310000    0.00400745280000
H         1.32951148710000   -1.97536493150000    0.02033211260000
H         3.69586284660000   -1.86981954260000    0.01893522930000
H        -0.77933263610000   -2.10093121720000    0.00273005310000
H        -3.20020985590000   -2.06359967200000   -0.00084267060000
$end

$rem
BASIS = 6-31G*
GUI = 2
METHOD = B3LYP
PRINT_ORBITALS false
MOLDEN_FORMAT false
--------------------------------------------------------------

             Standard Nuclear Orientation (Angstroms)
    I     Atom           X                Y                Z
 ----------------------------------------------------------------
    1      C       5.5664255402    -0.6030175954     0.0259032822
    2      C       4.6739094046     0.3808740758     0.0008173161
    3      C       3.2251889163     0.2444342727    -0.0040838926
    4      C       2.4350604865     1.3972007437    -0.0107641541
    5      C       1.0605610125     1.3192379045    -0.0125906317
    6      C       0.4042175595     0.0830229432    -0.0090879259
    7      C      -1.0426050423     0.0663507457    -0.0084980966
    8      C      -1.8264567126    -1.0257823197    -0.0127449914
    9      C      -3.2678487576    -1.0396731771    -0.0091017636
   10      C      -4.0997353620    -0.0034339428     0.0057715924
   11      F      -3.7911171203     1.2886658169     0.0201317327
   12      F      -5.4261393160    -0.1317157395     0.0088760610
   13      C       1.1968041439    -1.0705035502    -0.0045857552
   14      C       2.5709593358    -0.9907116802    -0.0020118542
   15      H       6.6232289696    -0.3983244013     0.0283577097
   16      H       5.2898412827    -1.6431050944     0.0457906298
   17      H       5.0270365253     1.4051726060    -0.0162107396
   18      H       2.9147071605     2.3660944287    -0.0133685393
   19      H       0.4732946537     2.2266341346    -0.0168389318
   20      H      -1.5006062328     1.0455030231    -0.0038720435
   21      H      -1.3809961908    -2.0096874902    -0.0197641644
   22      H      -3.7496977963    -2.0063688147    -0.0182717783
   23      H       0.7313029612    -2.0441193564    -0.0022427640
   24      H       3.1483134441    -1.9023402528     0.0012117271
 ----------------------------------------------------------------

    9    -662.9180514155      7.11e-06  Convergence criterion met
 Total energy in the final basis set =     -662.9180514155

                    Orbital Energies (a.u.)
 --------------------------------------------------------------

 Alpha MOs
 -- Occupied --
-24.7453 -24.7353 -10.3569 -10.2042 -10.1994 -10.1964 -10.1948 -10.1902
-10.1902 -10.1886 -10.1878 -10.1874 -10.1867 -10.1799  -1.2856  -1.2251
 -0.8679  -0.8277  -0.7985  -0.7578  -0.7502  -0.7140  -0.6539  -0.6216
 -0.6192  -0.5815  -0.5750  -0.5616  -0.5192  -0.5159  -0.5036  -0.4726
 -0.4650  -0.4495  -0.4438  -0.4416  -0.4292  -0.4235  -0.4128  -0.4074
 -0.3836  -0.3746  -0.3662  -0.3462  -0.3365  -0.3347  -0.3009  -0.2548
 -0.2485  -0.1978

          Ground-State Mulliken Net Atomic Charges

     Atom                 Charge (a.u.)
  ----------------------------------------
      1 C                    -0.353535
      2 C                    -0.113596
      3 C                     0.180417
      4 C                    -0.199714
      5 C                    -0.199034
      6 C                     0.188150
      7 C                    -0.196871
      8 C                    -0.120597
      9 C                    -0.242796
     10 C                     0.551798
     11 F                    -0.234039
     12 F                    -0.248034
     13 C                    -0.182208
     14 C                    -0.185679
     15 H                     0.144612
     16 H                     0.142541
     17 H                     0.126820
     18 H                     0.128640
     19 H                     0.129451
     20 H                     0.136319
     21 H                     0.134473
     22 H                     0.159170
     23 H                     0.126502
     24 H                     0.127211
  ----------------------------------------
  Sum of atomic charges =     0.000000

                    Cartesian Multipole Moments
 -----------------------------------------------------------------
    Charge (ESU x 10^10)
                -0.0000
    Dipole Moment (Debye)
         X       0.5833      Y      -0.7580      Z      -0.0090
       Tot       0.9565
    Quadrupole Moments (Debye-Ang)
        XX     -78.6115     XY       3.0319     YY     -71.0857
        XZ       0.0668     YZ      -0.0515     ZZ     -83.6884

 Total job time:  30.16s(wall), 30.06s(cpu)
        *  Thank you very much for using Q-Chem.  Have a nice day.  *
