 Q-Chem 5.2, Q-Chem, Inc., Pleasanton, CA (2019)
 Q-Chem 5.2.1 for Intel X86 EM64T Linux

User input:
--------------------------------------------------------------
$molecule
0 1
C        -4.03445951600000   -2.25462209730000    0.19992901280000
C        -4.14097492780000   -0.95263709200000   -0.03365373710000
C        -3.05651402120000    0.02447884280000   -0.04047069100000
C        -3.37669013280000    1.38401435210000   -0.06726424060000
C        -2.38027419070000    2.34209923840000   -0.06158250980000
C        -1.05255272780000    1.96316425470000   -0.03815192020000
C        -0.69668448570000    0.60991636390000   -0.02637112410000
C         0.71401576080000    0.27021117500000   -0.01377093350000
C         1.23746288140000   -0.96361028240000   -0.09696518620000
C         2.64088847690000   -1.29673297020000   -0.08578783120000
C         3.67906566690000   -0.47517544280000    0.02461218540000
F         3.66122021350000    0.84706143890000    0.15042895040000
F         4.94434303970000   -0.89289763430000    0.02409579820000
C        -1.71470564960000   -0.34300329940000   -0.02540844710000
H        -4.89791609400000   -2.89737232510000    0.18917390600000
H        -3.09583398270000   -2.73414142910000    0.41920375320000
H        -5.12159843010000   -0.53429781960000   -0.22609883000000
H        -4.41431064060000    1.68551586610000   -0.08459809170000
H        -2.64106215100000    3.39030898200000   -0.07658238330000
H        -0.27670992400000    2.71501622920000   -0.03587793150000
H         1.37609248880000    1.12111057880000    0.06278133570000
H         0.58771255570000   -1.82162540510000   -0.18776229390000
H         2.89826035460000   -2.34180748210000   -0.17648036730000
H        -1.46083208400000   -1.39033818250000   -0.01685977520000
$end

$rem
BASIS = 6-31G*
GUI = 2
METHOD = B3LYP
PRINT_ORBITALS false
MOLDEN_FORMAT false
--------------------------------------------------------------

             Standard Nuclear Orientation (Angstroms)
    I     Atom           X                Y                Z
 ----------------------------------------------------------------
    1      C       3.7855351222    -2.4439507160    -0.1688500335
    2      C       3.9601593542    -1.1451454371     0.0401538254
    3      C       2.9278232700    -0.1131273012     0.0313076318
    4      C       3.3181141512     1.2282302251     0.0319801894
    5      C       2.3726763466     2.2364473418     0.0107843327
    6      C       1.0270302418     1.9265331339    -0.0024346567
    7      C       0.6014712150     0.5935831204     0.0118699928
    8      C      -0.8249725821     0.3273443221     0.0089439327
    9      C      -1.4113789963    -0.8759094143     0.1163754156
   10      C      -2.8302120859    -1.1359267662     0.1147319569
   11      C      -3.8247788373    -0.2638011091    -0.0085183075
   12      F      -3.7388516129     1.0531745486    -0.1590185369
   13      F      -5.1099955430    -0.6152399578     0.0027812980
   14      C       1.5687306592    -0.4107203992     0.0262751871
   15      H       4.6145520055    -3.1303203494    -0.1481492280
   16      H       2.8225952996    -2.8781061124    -0.3769223358
   17      H       4.9617805318    -0.7747524725     0.2224431077
   18      H       4.3700174849     1.4757654572     0.0412337823
   19      H       2.6874855703     3.2698143779     0.0056128339
   20      H       0.2911913130     2.7174506390    -0.0168980560
   21      H      -1.4423130670     1.2098824465    -0.0819011211
   22      H      -0.8066696382    -1.7646493873     0.2216246626
   23      H      -3.1410955614    -2.1643846927     0.2255106236
   24      H       1.2608933122    -1.4434532252     0.0378640802
 ----------------------------------------------------------------

    9    -662.9164760489      6.93e-06  Convergence criterion met
 Total energy in the final basis set =     -662.9164760489

                    Orbital Energies (a.u.)
 --------------------------------------------------------------

 Alpha MOs
 -- Occupied --
-24.7452 -24.7353 -10.3569 -10.2040 -10.1992 -10.1967 -10.1955 -10.1907
-10.1899 -10.1878 -10.1870 -10.1868 -10.1862 -10.1807  -1.2856  -1.2251
 -0.8681  -0.8266  -0.7966  -0.7725  -0.7285  -0.7217  -0.6537  -0.6315
 -0.6128  -0.5784  -0.5757  -0.5585  -0.5192  -0.5191  -0.4992  -0.4741
 -0.4678  -0.4531  -0.4429  -0.4416  -0.4323  -0.4218  -0.4150  -0.3988
 -0.3832  -0.3743  -0.3696  -0.3417  -0.3393  -0.3334  -0.3009  -0.2695
 -0.2279  -0.2048

          Ground-State Mulliken Net Atomic Charges

     Atom                 Charge (a.u.)
  ----------------------------------------
      1 C                    -0.349314
      2 C                    -0.117284
      3 C                     0.181390
      4 C                    -0.197082
      5 C                    -0.126846
      6 C                    -0.198659
      7 C                     0.190069
      8 C                    -0.202117
      9 C                    -0.115604
     10 C                    -0.244684
     11 C                     0.552712
     12 F                    -0.233946
     13 F                    -0.248198
     14 C                    -0.247375
     15 H                     0.144527
     16 H                     0.141940
     17 H                     0.127923
     18 H                     0.127537
     19 H                     0.130204
     20 H                     0.129191
     21 H                     0.136559
     22 H                     0.134776
     23 H                     0.159180
     24 H                     0.125101
  ----------------------------------------
  Sum of atomic charges =     0.000000

                    Cartesian Multipole Moments
 -----------------------------------------------------------------
    Charge (ESU x 10^10)
                -0.0000
    Dipole Moment (Debye)
         X       0.8032      Y      -0.5008      Z       0.1017
       Tot       0.9520
    Quadrupole Moments (Debye-Ang)
        XX     -78.1586     XY       2.3356     YY     -71.1701
        XZ       0.1286     YZ      -0.0720     ZZ     -83.5413

 Total job time:  34.35s(wall), 34.05s(cpu)
        *  Thank you very much for using Q-Chem.  Have a nice day.  *
