 Q-Chem 5.2, Q-Chem, Inc., Pleasanton, CA (2019)
 Q-Chem 5.2.1 for Intel X86 EM64T Linux

User input:
--------------------------------------------------------------
$molecule
0 1
C         0.32206902730000    4.08816134820000    1.98146304630000
C         1.38210385830000    3.39372751760000    1.57721755570000
C         1.36745630760000    2.38855902560000    0.55123301570000
C         2.42639339630000    1.63595552140000    0.11605230510000
C         2.10790181580000    0.71713345850000   -0.90386429650000
C         3.13203824990000   -0.20678552990000   -1.48818135680000
C         3.79975947320000   -1.08879093310000   -0.42337326140000
C         2.80666960010000   -1.83046757030000    0.47156618070000
C         1.89100260220000   -2.77781625600000   -0.29929996600000
C         1.07003776840000   -3.69080713880000    0.61256432190000
C         0.16759959630000   -2.95667024510000    1.60614633540000
C        -0.82149134400000   -2.00037725350000    0.94286206480000
C        -1.83592228930000   -1.46028892980000    1.94929893440000
C        -2.69561806130000   -0.32582090210000    1.39274551660000
C        -3.58536797260000   -0.75196604780000    0.22793831130000
C        -4.49785881920000    0.38298409510000   -0.23076938230000
C        -5.34195923420000   -0.01825818320000   -1.43418492270000
C         0.77790390610000    0.77745402250000   -1.26365088870000
C         0.08130261590000    0.02497962710000   -2.27114873610000
C        -1.21324097230000    0.14785490370000   -2.55353775660000
S        -0.07416370350000    1.97282047210000   -0.32170450970000
H         0.39328187020000    4.83040100070000    2.75643032080000
H        -0.65079029420000    3.93090566220000    1.54548375590000
H         2.35251271590000    3.56283617420000    2.02753380440000
H         3.41689944750000    1.74350025020000    0.52302474380000
H         3.90743214450000    0.39184440530000   -1.97674084750000
H         2.67990888350000   -0.83966611140000   -2.25040826320000
H         4.43709118900000   -0.46755842830000    0.20969724570000
H         4.44431155410000   -1.81110791980000   -0.93022048870000
H         2.20435492500000   -1.09782972120000    1.01083373680000
H         3.37154596840000   -2.40509703810000    1.21031205100000
H         2.50080480480000   -3.40647516740000   -0.95439081630000
H         1.21195550350000   -2.20278302430000   -0.92801473250000
H         1.74982252190000   -4.33680314460000    1.17468669270000
H         0.44931868280000   -4.33511621930000   -0.01563357760000
H         0.77997179620000   -2.40441642540000    2.32150655480000
H        -0.39305485970000   -3.70592473380000    2.17180494190000
H        -1.34094911080000   -2.52560006440000    0.13951783370000
H        -0.28477060680000   -1.15989897460000    0.50107127330000
H        -1.29571974300000   -1.08671688990000    2.82340343840000
H        -2.48208326790000   -2.27493822340000    2.28599003920000
H        -2.04523254210000    0.48861822200000    1.06613629680000
H        -3.32798296080000    0.05993693700000    2.19687310450000
H        -4.19598425930000   -1.60641374910000    0.53036270620000
H        -2.96228234830000   -1.06532490950000   -0.61129611630000
H        -3.88775157710000    1.25234392360000   -0.48773035450000
H        -5.15424813850000    0.67565062790000    0.59219897660000
H        -4.70444809850000   -0.28956557450000   -2.27298001480000
H        -5.98584934270000    0.80197934200000   -1.74361860280000
H        -5.96888900340000   -0.87383537630000   -1.19171741290000
H         0.68337032580000   -0.68031343220000   -2.82914867270000
H        -1.84088845440000    0.84582646160000   -2.02571765770000
H        -1.68048353640000   -0.44172215250000   -3.32251865510000
$end

$rem
BASIS = 6-31G*
GUI = 2
METHOD = B3LYP
PRINT_ORBITALS false
MOLDEN_FORMAT false
--------------------------------------------------------------

             Standard Nuclear Orientation (Angstroms)
    I     Atom           X                Y                Z
 ----------------------------------------------------------------
    1      C      -0.2720191381    -4.1721641064     1.9357000958
    2      C      -1.3462818440    -3.5011549492     1.5294576135
    3      C      -1.3497278160    -2.4877292574     0.5115288258
    4      C      -2.4241348256    -1.7582946592     0.0748174935
    5      C      -2.1217225751    -0.8236581868    -0.9355795768
    6      C      -3.1645998340     0.0790981645    -1.5198279425
    7      C      -3.8614348150     0.9356028119    -0.4528592261
    8      C      -2.8933455265     1.6946026181     0.4548581081
    9      C      -1.9963778879     2.6706469337    -0.3020677460
   10      C      -1.2047529678     3.5964744143     0.6227054976
   11      C      -0.2910802661     2.8771148128     1.6168286331
   12      C       0.7261215165     1.9511378153     0.9530437801
   13      C       1.7468120179     1.4284495110     1.9623348925
   14      C       2.6383833048     0.3202753094     1.4029630911
   15      C       3.5251669439     0.7778113740     0.2478414774
   16      C       4.4688571352    -0.3303138755    -0.2133215897
   17      C       5.3108934945     0.1014995645    -1.4075668585
   18      C      -0.7881983995    -0.8479063311    -1.2864423743
   19      C      -0.1037314697    -0.0702320488    -2.2830620201
   20      C       1.1953831647    -0.1585188563    -2.5572728890
   21      S       0.0870006288    -2.0291786489    -0.3479299806
   22      H      -0.3299699616    -4.9221463914     2.7042920041
   23      H       0.6995712467    -3.9872041512     1.5078397320
   24      H      -2.3152246261    -3.6980178068     1.9715783129
   25      H      -3.4144095228    -1.8937678584     0.4739386637
   26      H      -3.9214257145    -0.5347383531    -2.0185294396
   27      H      -2.7232148106     0.7291547053    -2.2738534103
   28      H      -4.4873660376     0.2936092690     0.1708027044
   29      H      -4.5203480037     1.6456692580    -0.9585492279
   30      H      -2.2766198035     0.9729053896     0.9925877576
   31      H      -3.4774545019     2.2490189467     1.1940935490
   32      H      -2.6171965051     3.2891440681    -0.9564837564
   33      H      -1.2988804202     2.1177904444    -0.9304763886
   34      H      -1.9043048784     4.2207855558     1.1850776461
   35      H      -0.5960388712     4.2610832624     0.0039800310
   36      H      -0.8943480258     2.3040380000     2.3234934850
   37      H       0.2467858462     3.6355507342     2.1922939799
   38      H       1.2377844611     2.4955824520     0.1575323753
   39      H       0.2136119642     1.1011117445     0.5008915623
   40      H       1.2101366155     1.0345182543     2.8296475359
   41      H       2.3700907288     2.2562281024     2.3099620405
   42      H       2.0108071333    -0.5074794630     1.0653891309
   43      H       3.2746656591    -0.0560380191     2.2084745427
   44      H       4.1121531485     1.6447635187     0.5612658112
   45      H       2.9002105723     1.0822637941    -0.5932781059
   46      H       3.8824409194    -1.2125253305    -0.4813985749
   47      H       5.1267003806    -0.6131200573     0.6119301813
   48      H       4.6725643124     0.3635517199    -2.2486791449
   49      H       5.9771855577    -0.6999169874    -1.7188860979
   50      H       5.9145703339     0.9704689380    -1.1539721748
   51      H      -0.7193985992     0.6242863204    -2.8397360510
   52      H       1.8366453207    -0.8448381172    -2.0305391483
   53      H       1.6530047493     0.4486800869    -3.3182855497
 ----------------------------------------------------------------

    9   -1179.5609027529      1.95e-06  Convergence criterion met
 Total energy in the final basis set =    -1179.5609027529

                    Orbital Energies (a.u.)
 --------------------------------------------------------------

 Alpha MOs
 -- Occupied --
-88.8996 -10.2191 -10.2157 -10.1993 -10.1982 -10.1960 -10.1888 -10.1880
-10.1836 -10.1815 -10.1807 -10.1702 -10.1683 -10.1682 -10.1674 -10.1641
-10.1630 -10.1622 -10.1620 -10.1598 -10.1596  -7.9612  -5.9254  -5.9217
 -5.9178  -0.8919  -0.8181  -0.8070  -0.8011  -0.7861  -0.7725  -0.7569
 -0.7344  -0.7145  -0.7037  -0.6773  -0.6499  -0.6289  -0.6199  -0.5889
 -0.5780  -0.5700  -0.5559  -0.5473  -0.5433  -0.5168  -0.4971  -0.4721
 -0.4684  -0.4667  -0.4576  -0.4459  -0.4430  -0.4309  -0.4274  -0.4204
 -0.4122  -0.4075  -0.3971  -0.3955  -0.3917  -0.3880  -0.3810  -0.3734
 -0.3688  -0.3622  -0.3572  -0.3533  -0.3495  -0.3404  -0.3351  -0.3303
 -0.3266  -0.3222  -0.3194  -0.3132  -0.3093  -0.3049  -0.3008  -0.2952
 -0.2867  -0.2694  -0.2444  -0.1994

          Ground-State Mulliken Net Atomic Charges

     Atom                 Charge (a.u.)
  ----------------------------------------
      1 C                    -0.373244
      2 C                    -0.056141
      3 C                    -0.130652
      4 C                    -0.180051
      5 C                     0.156821
      6 C                    -0.343989
      7 C                    -0.263738
      8 C                    -0.257909
      9 C                    -0.265221
     10 C                    -0.258875
     11 C                    -0.256890
     12 C                    -0.272034
     13 C                    -0.251910
     14 C                    -0.271745
     15 C                    -0.255129
     16 C                    -0.252573
     17 C                    -0.442727
     18 C                    -0.213972
     19 C                    -0.052524
     20 C                    -0.384757
     21 S                     0.235386
     22 H                     0.147944
     23 H                     0.158593
     24 H                     0.138442
     25 H                     0.135883
     26 H                     0.151122
     27 H                     0.148033
     28 H                     0.130799
     29 H                     0.133532
     30 H                     0.151248
     31 H                     0.126771
     32 H                     0.121366
     33 H                     0.143874
     34 H                     0.122891
     35 H                     0.123802
     36 H                     0.131509
     37 H                     0.124518
     38 H                     0.129946
     39 H                     0.157877
     40 H                     0.123447
     41 H                     0.121720
     42 H                     0.151576
     43 H                     0.119274
     44 H                     0.121752
     45 H                     0.141855
     46 H                     0.130583
     47 H                     0.129210
     48 H                     0.139698
     49 H                     0.139239
     50 H                     0.141281
     51 H                     0.141548
     52 H                     0.165656
     53 H                     0.146884
  ----------------------------------------
  Sum of atomic charges =     0.000000

                    Cartesian Multipole Moments
 -----------------------------------------------------------------
    Charge (ESU x 10^10)
                 0.0000
    Dipole Moment (Debye)
         X      -1.3905      Y       0.0545      Z      -0.0649
       Tot       1.3931
    Quadrupole Moments (Debye-Ang)
        XX    -133.7538     XY       0.7843     YY    -139.6362
        XZ      -0.4591     YZ      -6.1671     ZZ    -138.4687

 Total job time:  157.93s(wall), 157.52s(cpu)
        *  Thank you very much for using Q-Chem.  Have a nice day.  *
