 Q-Chem 5.2, Q-Chem, Inc., Pleasanton, CA (2019)
 Q-Chem 5.2.1 for Intel X86 EM64T Linux

User input:
--------------------------------------------------------------
$molecule
0 1
C        -3.82549953430000    1.41019937910000   -0.31258198150000
C        -3.38468648710000    0.20102545740000    0.01391062060000
C        -1.99266267620000   -0.22371765720000    0.07866807320000
C        -1.69903696170000   -1.56933869750000    0.31588598430000
C        -0.39653558410000   -2.01720836240000    0.35783281990000
C         0.67842037620000   -1.14563878090000    0.17798603880000
C         2.02879667420000   -1.70356512690000    0.11510809470000
C         2.99775022390000   -1.25671513270000   -0.67462657470000
C         0.39274488600000    0.21727974240000   -0.00332213920000
C         1.43921184770000    1.28216595260000   -0.06442964330000
O         1.41121532570000    2.19201894120000   -0.84501885920000
O         2.39501464970000    1.21848475510000    0.88577201830000
C        -0.92199278410000    0.65479921340000   -0.07339012560000
H        -4.87853915940000    1.63163756810000   -0.33891243220000
H        -3.16653590690000    2.22070142660000   -0.57162143840000
H        -4.10202820820000   -0.57554913510000    0.25072101180000
H        -2.50825423600000   -2.27201039480000    0.45505529850000
H        -0.19555930850000   -3.06785618560000    0.51159273510000
H         2.18700089160000   -2.59348523870000    0.71279938780000
H         2.86219867700000   -0.40801044710000   -1.32475758040000
H         3.96168624090000   -1.73440199170000   -0.70876367530000
H         2.32461408990000    0.41596101970000    1.41979692520000
H        -1.09218030540000    1.70815790500000   -0.23105315400000
$end

$rem
BASIS = 6-31G*
GUI = 2
METHOD = B3LYP
PRINT_ORBITALS false
MOLDEN_FORMAT false
--------------------------------------------------------------

             Standard Nuclear Orientation (Angstroms)
    I     Atom           X                Y                Z
 ----------------------------------------------------------------
    1      C       3.9212767602    -1.0933444017    -0.1825952973
    2      C       3.3663188274     0.0979437632     0.0067967189
    3      C       1.9399506086     0.3928641094     0.0355408473
    4      C       1.5185870123     1.7227688146     0.1191505139
    5      C       0.1791527289     2.0464442783     0.1217209584
    6      C      -0.8072230885     1.0615920536     0.0536213337
    7      C      -2.2046823533     1.4774261880    -0.0601379103
    8      C      -3.1252488493     0.8521951067    -0.7839266699
    9      C      -0.3922031373    -0.2797177848     0.0276136493
   10      C      -1.3319071471    -1.4392904013     0.0994300171
   11      O      -1.2158186242    -2.4263492217    -0.5715201525
   12      O      -2.2908553441    -1.3576207109     1.0450757786
   13      C       0.9584637380    -0.5952411404    -0.0041975972
   14      H       4.9907089637    -1.2150828596    -0.1933249874
   15      H       3.3432629380    -1.9873576361    -0.3403559690
   16      H       4.0057221792     0.9614027238     0.1458232666
   17      H       2.2566619816     2.5106311090     0.1688149272
   18      H      -0.1216421812     3.0838818954     0.1554853778
   19      H      -2.4481976236     2.4112666502     0.4326739868
   20      H      -2.9081457508    -0.0491042704    -1.3333535232
   21      H      -4.1304081361     1.2287991021    -0.8635944831
   22      H      -2.2983575926    -0.4957800677     1.4825201840
   23      H       1.2288763690    -1.6387407002    -0.0412331710
 ----------------------------------------------------------------

    9    -575.6011845697      6.08e-06  Convergence criterion met
 Total energy in the final basis set =     -575.6011845697

                    Orbital Energies (a.u.)
 --------------------------------------------------------------

 Alpha MOs
 -- Occupied --
-19.1876 -19.1303 -10.3164 -10.2168 -10.2126 -10.2095 -10.2073 -10.2041
-10.2034 -10.2029 -10.1993 -10.1979 -10.1890  -1.0990  -1.0177  -0.8856
 -0.8250  -0.7822  -0.7750  -0.7313  -0.6587  -0.6455  -0.6127  -0.5901
 -0.5794  -0.5336  -0.5066  -0.4898  -0.4754  -0.4510  -0.4489  -0.4436
 -0.4324  -0.4260  -0.4023  -0.3976  -0.3818  -0.3745  -0.3591  -0.3539
 -0.3296  -0.3112  -0.2840  -0.2784  -0.2594  -0.2276

          Ground-State Mulliken Net Atomic Charges

     Atom                 Charge (a.u.)
  ----------------------------------------
      1 C                    -0.346832
      2 C                    -0.116679
      3 C                     0.180738
      4 C                    -0.185968
      5 C                    -0.191265
      6 C                     0.124034
      7 C                    -0.188276
      8 C                    -0.323183
      9 C                     0.005726
     10 C                     0.510902
     11 O                    -0.444950
     12 O                    -0.561177
     13 C                    -0.223495
     14 H                     0.150022
     15 H                     0.155237
     16 H                     0.130370
     17 H                     0.136540
     18 H                     0.136116
     19 H                     0.141436
     20 H                     0.179505
     21 H                     0.156230
     22 H                     0.414292
     23 H                     0.160677
  ----------------------------------------
  Sum of atomic charges =     0.000000

                    Cartesian Multipole Moments
 -----------------------------------------------------------------
    Charge (ESU x 10^10)
                 0.0000
    Dipole Moment (Debye)
         X       1.0585      Y       4.1317      Z       1.3053
       Tot       4.4604
    Quadrupole Moments (Debye-Ang)
        XX     -66.5231     XY      -7.8417     YY     -78.1251
        XZ      -0.8739     YZ       0.2459     ZZ     -76.5351

 Total job time:  32.47s(wall), 32.36s(cpu)
        *  Thank you very much for using Q-Chem.  Have a nice day.  *
