 Q-Chem 5.2, Q-Chem, Inc., Pleasanton, CA (2019)
 Q-Chem 5.2.1 for Intel X86 EM64T Linux

User input:
--------------------------------------------------------------
$molecule
0 1
C         2.61624493430000    2.68130445960000   -0.23487789810000
C         2.56810265380000    1.41826332580000    0.17101484210000
C         1.39799916890000    0.56952468410000    0.07757476450000
C         0.06087971740000    1.00154719370000    0.03346607470000
C        -0.74436462950000   -0.12241106840000    0.04078478510000
C        -2.18557113970000   -0.29854689660000    0.01102705440000
O        -2.72581631430000   -1.38499105690000    0.03029391190000
O        -2.83963240650000    0.87390323600000   -0.03895871420000
C        -4.25825807640000    0.82772824230000   -0.07156011080000
N         0.07080756290000   -1.21593909700000    0.09160391500000
C         1.37138071340000   -0.83424386150000    0.10264855420000
C         2.42146306900000   -1.82115945650000    0.12108052800000
C         3.67630220680000   -1.64049211810000   -0.28160543400000
H         3.50380537900000    3.27896076680000   -0.11872132860000
H         1.77549111360000    3.15870222800000   -0.70846600630000
H         3.43792219490000    0.96395432370000    0.62735160730000
H        -0.28585603810000    2.01449780300000    0.02452165390000
H        -4.63777782650000    1.41273933190000    0.76641074250000
H        -4.59817765180000   -0.20705771820000    0.00551558840000
H        -4.59841016080000    1.26366116670000   -1.01172059050000
H        -0.27820415110000   -2.16203557850000    0.08677936900000
H         2.11307704890000   -2.79774407510000    0.47758352240000
H         4.01741155490000   -0.70801801710000   -0.69430384030000
H         4.39817422850000   -2.43690626860000   -0.22758681710000
$end

$rem
BASIS = 6-31G*
GUI = 2
METHOD = B3LYP
PRINT_ORBITALS false
MOLDEN_FORMAT false
--------------------------------------------------------------

             Standard Nuclear Orientation (Angstroms)
    I     Atom           X                Y                Z
 ----------------------------------------------------------------
    1      C      -2.4793617692    -2.7721496337    -0.1345290966
    2      C      -2.4816317546    -1.4965886718     0.2332732702
    3      C      -1.3483473373    -0.6033128540     0.1069592241
    4      C       0.0053282168    -0.9807266347     0.0669744114
    5      C       0.7631638493     0.1753240350     0.0355705892
    6      C       2.1956209182     0.4100135391    -0.0088494505
    7      O       2.6903137507     1.5179846941    -0.0254595404
    8      O       2.8975981682    -0.7353193467    -0.0282028027
    9      C       4.3128835638    -0.6314409930    -0.0714498724
   10      N      -0.0964963062     1.2351918487     0.0591602272
   11      C      -1.3799947703     0.8004736840     0.0900724699
   12      C      -2.4700969425     1.7431696879     0.0860004452
   13      C      -3.7184563417     1.4986961694    -0.3029075670
   14      H      -3.3406722349    -3.4022905532     0.0051693515
   15      H      -1.6220071426    -3.2283191775    -0.5991942492
   16      H      -3.3671579326    -1.0651988573     0.6815724589
   17      H       0.3938351064    -1.9782628572     0.0859086477
   18      H       4.7208430878    -1.1748283740     0.7810567537
   19      H       4.6098818062     0.4183790855    -0.0274292869
   20      H       4.6658768534    -1.0809281912    -1.0004276326
   21      H       0.2128397037     2.1943575488     0.0238983809
   22      H      -2.2007017524     2.7419430529     0.4112570155
   23      H      -4.0226785638     0.5409344724    -0.6854319223
   24      H      -4.4725259345     2.2657981627    -0.2678889037
 ----------------------------------------------------------------

    9    -592.8540644364      5.66e-06  Convergence criterion met
 Total energy in the final basis set =     -592.8540644364

                    Orbital Energies (a.u.)
 --------------------------------------------------------------

 Alpha MOs
 -- Occupied --
-19.1893 -19.1298 -14.3896 -10.3142 -10.2348 -10.2274 -10.2189 -10.2041
-10.1882 -10.1870 -10.1861 -10.1828 -10.1732  -1.1036  -1.0166  -0.9950
 -0.8155  -0.8026  -0.7623  -0.7431  -0.7101  -0.6286  -0.6236  -0.6046
 -0.5639  -0.5352  -0.5278  -0.4966  -0.4825  -0.4705  -0.4619  -0.4434
 -0.4356  -0.4265  -0.4191  -0.4114  -0.4001  -0.3922  -0.3670  -0.3504
 -0.3475  -0.3029  -0.2989  -0.2953  -0.2773  -0.2355  -0.2023

          Ground-State Mulliken Net Atomic Charges

     Atom                 Charge (a.u.)
  ----------------------------------------
      1 C                    -0.354358
      2 C                    -0.116458
      3 C                     0.042215
      4 C                    -0.236198
      5 C                     0.292499
      6 C                     0.566076
      7 O                    -0.515513
      8 O                    -0.457554
      9 C                    -0.235800
     10 N                    -0.695127
     11 C                     0.318966
     12 C                    -0.120778
     13 C                    -0.349078
     14 H                     0.139118
     15 H                     0.139876
     16 H                     0.133951
     17 H                     0.147785
     18 H                     0.163058
     19 H                     0.192542
     20 H                     0.162589
     21 H                     0.343841
     22 H                     0.131755
     23 H                     0.159268
     24 H                     0.147326
  ----------------------------------------
  Sum of atomic charges =     0.000000

                    Cartesian Multipole Moments
 -----------------------------------------------------------------
    Charge (ESU x 10^10)
                 0.0000
    Dipole Moment (Debye)
         X      -0.3522      Y       0.0425      Z       0.0256
       Tot       0.3557
    Quadrupole Moments (Debye-Ang)
        XX     -65.8926     XY      -7.7381     YY     -71.2663
        XZ      -0.4199     YZ       1.1363     ZZ     -77.8040

 Total job time:  30.92s(wall), 30.82s(cpu)
        *  Thank you very much for using Q-Chem.  Have a nice day.  *
