 Q-Chem 5.2, Q-Chem, Inc., Pleasanton, CA (2019)
 Q-Chem 5.2.1 for Intel X86 EM64T Linux

User input:
--------------------------------------------------------------
$molecule
0 1
C         2.16016337110000   -3.15310203750000    0.04750091150000
C         0.92643771470000   -2.65523297310000    0.03995416940000
C         0.60548554530000   -1.25793926650000    0.01930355890000
S         1.80729679080000    0.00031167290000    0.00029815150000
C         0.60503133200000    1.25815892520000   -0.01868410760000
C         0.92555403140000    2.65554551860000   -0.03968979500000
C         2.15912812540000    3.15376176590000   -0.04887068260000
C        -0.65690343600000    0.70713624070000   -0.00586502520000
C        -0.65664693980000   -0.70735838890000    0.00646573460000
O        -1.80769796880000   -1.44732809550000   -0.00501461020000
C        -2.92850522210000   -0.66874475560000   -0.37234025320000
C        -2.92908392510000    0.66777262910000    0.37151315410000
O        -1.80818992740000    1.44673850390000    0.00528643280000
H         2.34172769760000   -4.21270413180000    0.05883565570000
H         3.02234925660000   -2.50695641190000    0.04268675800000
H         0.06000872000000   -3.30358469370000    0.04698384590000
H         0.05894048570000    3.30365837520000   -0.04589739450000
H         3.02150017370000    2.50785840240000   -0.04510711060000
H         2.34038352190000    4.21341777560000   -0.06032035990000
H        -3.80908905720000   -1.25915925330000   -0.11617687280000
H        -2.91210910200000   -0.47957947310000   -1.45479049710000
H        -2.91369881530000    0.47861472140000    1.45397991780000
H        -3.80961873320000    1.25790786210000    0.11449612870000
$end

$rem
BASIS = 6-31G*
GUI = 2
METHOD = B3LYP
PRINT_ORBITALS false
MOLDEN_FORMAT false
--------------------------------------------------------------

             Standard Nuclear Orientation (Angstroms)
    I     Atom           X                Y                Z
 ----------------------------------------------------------------
    1      C       2.1734314233    -3.1530019554     0.0505982825
    2      C       0.9396943979    -2.6551687389     0.0425612113
    3      C       0.6187103168    -1.2579030813     0.0205533219
    4      S       1.8204928281     0.0003563921     0.0003346440
    5      C       0.6181986449     1.2581570679    -0.0198749221
    6      C       0.9386894323     2.6555299789    -0.0422341284
    7      C       2.1722521585     3.1537653760    -0.0518908737
    8      C      -0.6437235665     0.7071181370    -0.0065289321
    9      C      -0.6434347140    -0.7073638602     0.0071738705
   10      O      -1.7944687080    -1.4473707515    -0.0035956130
   11      C      -2.9152915991    -0.6691697843    -0.3716830285
   12      C      -2.9159054257     0.6680684890     0.3708736155
   13      O      -1.7950270819     1.4467044662     0.0038982036
   14      H       2.3550199754    -4.2125883925     0.0629619156
   15      H       3.0356025232    -2.5068415310     0.0451625503
   16      H       0.0732802261    -3.3035332055     0.0502145799
   17      H       0.0720610648     3.3036166349    -0.0490755896
   18      H       3.0346389927     2.5078857441    -0.0474956075
   19      H       2.3534833288     4.2134139376    -0.0643673146
   20      H      -3.7958634404    -1.2593557226    -0.1149523567
   21      H      -2.8988932957    -0.4810541817    -1.4543161534
   22      H      -2.9005224995     0.4799610061     1.4535234437
   23      H      -3.7964522156     1.2579339466     0.1132790006
 ----------------------------------------------------------------

    9    -935.6455349224      2.29e-06  Convergence criterion met
 Total energy in the final basis set =     -935.6455349224

                    Orbital Energies (a.u.)
 --------------------------------------------------------------

 Alpha MOs
 -- Occupied --
-88.9006 -19.1899 -19.1899 -10.2573 -10.2571 -10.2494 -10.2489 -10.2142
-10.2142 -10.1928 -10.1928 -10.1756 -10.1756  -7.9619  -5.9262  -5.9228
 -5.9183  -1.0991  -1.0646  -0.8890  -0.8039  -0.7853  -0.7645  -0.7194
 -0.7078  -0.6555  -0.6328  -0.5667  -0.5587  -0.5486  -0.5342  -0.5060
 -0.4902  -0.4563  -0.4537  -0.4503  -0.4270  -0.4177  -0.4151  -0.4082
 -0.3962  -0.3796  -0.3530  -0.3465  -0.3367  -0.3364  -0.3193  -0.2976
 -0.2618  -0.2196  -0.1877

          Ground-State Mulliken Net Atomic Charges

     Atom                 Charge (a.u.)
  ----------------------------------------
      1 C                    -0.378313
      2 C                    -0.051776
      3 C                    -0.202783
      4 S                     0.254435
      5 C                    -0.202800
      6 C                    -0.051770
      7 C                    -0.378316
      8 C                     0.315801
      9 C                     0.315772
     10 O                    -0.514662
     11 C                    -0.065266
     12 C                    -0.065205
     13 O                    -0.514671
     14 H                     0.144592
     15 H                     0.152055
     16 H                     0.151087
     17 H                     0.151083
     18 H                     0.152055
     19 H                     0.144591
     20 H                     0.161787
     21 H                     0.160266
     22 H                     0.160259
     23 H                     0.161779
  ----------------------------------------
  Sum of atomic charges =     0.000000

                    Cartesian Multipole Moments
 -----------------------------------------------------------------
    Charge (ESU x 10^10)
                 0.0000
    Dipole Moment (Debye)
         X      -2.6793      Y      -0.0006      Z      -0.0012
       Tot       2.6793
    Quadrupole Moments (Debye-Ang)
        XX     -69.6428     XY       0.0016     YY     -80.4728
        XZ      -0.0002     YZ       0.4224     ZZ     -85.4450

 Total job time:  34.82s(wall), 34.66s(cpu)
        *  Thank you very much for using Q-Chem.  Have a nice day.  *
