 Q-Chem 5.4, Q-Chem, Inc., Pleasanton, CA (2021)
 Q-Chem 5.4.2 for Intel X86 EM64T Linux

User input:
--------------------------------------------------------------
$molecule
0 1
C           -2.57307658050000       -1.99816667150000        1.34300008350000
C           -2.73142692750000       -0.94497971430000        0.55262088140000
C           -1.67062610300000       -0.01063772330000        0.17191659450000
C           -2.01524366120000        1.32462348250000       -0.02632370150000
C           -1.04841216450000        2.26275967880000       -0.33724096110000
Cl          -1.50499945170000        3.91117161330000       -0.58434473290000
C            0.27989176560000        1.89877093840000       -0.45141467350000
C            0.64798420610000        0.56919090320000       -0.26479485810000
C            2.05585700920000        0.20101438010000       -0.40831433220000
C            2.71259651980000       -0.65234673870000        0.36026622470000
F            2.28015940670000       -1.27673246530000        1.43942486600000
F            3.99560334480000       -0.95926162760000        0.16613466890000
C           -0.32856828990000       -0.39539876210000        0.02145067000000
O            0.06322984160000       -1.70712773120000        0.11863722800000
C           -0.28420397000000       -2.51817480080000       -0.99646920390000
C            0.10970043070000       -3.94922754150000       -0.67577492030000
H           -3.40549243090000       -2.62671510770000        1.61121635960000
H           -1.61259726060000       -2.26046765600000        1.75167945030000
H           -3.71735424170000       -0.68486275210000        0.18652736020000
H           -3.04541062320000        1.62870531830000        0.07836949930000
H            1.03061706920000        2.63845353420000       -0.68023420940000
H            2.61817805290000        0.67508048020000       -1.19865510080000
H            0.25619455590000       -2.15985582650000       -1.88602078940000
H           -1.36160843820000       -2.44855921760000       -1.19656614270000
H            1.16819318310000       -3.99571125510000       -0.43573745760000
H           -0.09284969530000       -4.58833873710000       -1.53037733820000
H           -0.45450975370000       -4.30673808680000        0.18078586530000
$end

$rem
BASIS = 6-31G*
GUI = 2
METHOD = B3LYP
PRINT_ORBITALS false
MOLDEN_FORMAT false
$end
--------------------------------------------------------------

             Standard Nuclear Orientation (Angstroms)
    I     Atom           X                Y                Z
 ----------------------------------------------------------------
    1      C       0.4720452458    -3.2181994843     1.1367762878
    2      C      -0.5761978183    -2.7775091137     0.4541670598
    3      C      -0.8706466040    -1.3701747263     0.1785968615
    4      C      -2.2071546310    -0.9825662400     0.1115974648
    5      C      -2.5468454683     0.3416116913    -0.0950305816
    6      Cl     -4.2127913795     0.7934212764    -0.1803912893
    7      C      -1.5700278313     1.3094931557    -0.2326806646
    8      C      -0.2274313899     0.9456582612    -0.1764575806
    9      C       0.7909541588     1.9817166071    -0.3429856545
   10      C       1.9188198093     2.0724856580     0.3425273725
   11      F       2.3230013641     1.3218703992     1.3498290996
   12      F       2.8171821537     3.0347875755     0.1306065367
   13      C       0.1280135777    -0.3987813926     0.0028895537
   14      O       1.4600377660    -0.7279463889    -0.0278652531
   15      C       1.8887810895    -1.3706837798    -1.2216147100
   16      C       3.3424457147    -1.7712801902    -1.0418951491
   17      H       0.6108473616    -4.2680179010     1.3331038713
   18      H       1.2176079863    -2.5466991225     1.5260892973
   19      H      -1.3293283807    -3.4745370876     0.1067705591
   20      H      -2.9821053510    -1.7231725410     0.2365938136
   21      H      -1.8424064829     2.3426157264    -0.3794622306
   22      H       0.6051448832     2.7515571937    -1.0767448373
   23      H       1.7830720572    -0.6722494475    -2.0658541082
   24      H       1.2661970014    -2.2522848495    -1.4237387053
   25      H       3.9388435108    -0.8966604150    -0.7978960841
   26      H       3.7183971087    -2.2177955320    -1.9579298458
   27      H       3.4326948493    -2.4878910636    -0.2306200716
 ----------------------------------------------------------------

    9   -1198.9392178570      5.49e-06  Convergence criterion met
 Total energy in the final basis set =    -1198.9392178570

                    Orbital Energies (a.u.)
 --------------------------------------------------------------

 Alpha MOs
 -- Occupied --
******** -24.7367 -24.7325 -19.1672 -10.3572 -10.2510 -10.2499 -10.2391
-10.2144 -10.2092 -10.2030 -10.2023 -10.2021 -10.1982 -10.1849 -10.1802
 -9.4661  -7.2298  -7.2204  -7.2201  -1.2825  -1.2210  -1.0618  -0.9005
 -0.8518  -0.8214  -0.7806  -0.7712  -0.7415  -0.7146  -0.6496  -0.6427
 -0.6205  -0.6035  -0.5734  -0.5623  -0.5411  -0.5210  -0.5163  -0.4934
 -0.4843  -0.4682  -0.4667  -0.4432  -0.4391  -0.4387  -0.4321  -0.4271
 -0.4115  -0.4024  -0.3975  -0.3904  -0.3845  -0.3749  -0.3586  -0.3469
 -0.3341  -0.3147  -0.3072  -0.2783  -0.2712  -0.2321  -0.2273

          Ground-State Mulliken Net Atomic Charges

     Atom                 Charge (a.u.)
  ----------------------------------------
      1 C                    -0.331381
      2 C                    -0.147571
      3 C                     0.165174
      4 C                    -0.210982
      5 C                    -0.060120
      6 Cl                   -0.016504
      7 C                    -0.202931
      8 C                     0.151061
      9 C                    -0.329967
     10 C                     0.580397
     11 F                    -0.222764
     12 F                    -0.250657
     13 C                     0.229528
     14 O                    -0.540631
     15 C                    -0.029596
     16 C                    -0.459162
     17 H                     0.143301
     18 H                     0.172936
     19 H                     0.136698
     20 H                     0.151176
     21 H                     0.152805
     22 H                     0.168861
     23 H                     0.133742
     24 H                     0.142870
     25 H                     0.162782
     26 H                     0.149948
     27 H                     0.160986
  ----------------------------------------
  Sum of atomic charges =     0.000000

                    Cartesian Multipole Moments
 -----------------------------------------------------------------
    Charge (ESU x 10^10)
                 0.0000
    Dipole Moment (Debye)
         X       0.9496      Y      -1.3654      Z      -1.3460
       Tot       2.1396
    Quadrupole Moments (Debye-Ang)
        XX    -103.4276     XY      -1.2501     YY     -90.1363
        XZ      -2.4304     YZ      -0.9973     ZZ     -97.8615

 Total job time:  72.90s(wall), 69.17s(cpu)
        *  Thank you very much for using Q-Chem.  Have a nice day.  *
