 Q-Chem 5.2, Q-Chem, Inc., Pleasanton, CA (2019)
 Q-Chem 5.2.1 for Intel X86 EM64T Linux

User input:
--------------------------------------------------------------
$molecule
0 1
C         3.63353151140000    1.67492338930000   -0.39336916190000
C         2.87688632060000    0.76459640080000    0.20469875520000
C         1.41706364330000    0.72592463820000    0.13100516040000
C         0.69803047570000    1.90105546640000    0.14220764170000
C        -0.69568758510000    1.90190141690000    0.14243351930000
C        -1.41602093610000    0.72759882270000    0.13172368130000
C        -2.87583815620000    0.76799688950000    0.20580482790000
C        -3.63143152420000    1.67722941880000   -0.39521625020000
C        -0.71159156630000   -0.50968524370000    0.07779263080000
C        -1.38602747380000   -1.74559305360000   -0.01902830770000
C        -0.70199979480000   -2.92634496050000   -0.09685816180000
C         0.69807291230000   -2.92723526970000   -0.09754426950000
C         1.38376189190000   -1.74739523700000   -0.02030158720000
C         0.71111835760000   -0.51056290440000    0.07724069320000
H         4.70538549020000    1.67691366260000   -0.29095561890000
H         3.21336108230000    2.44105847580000   -1.02357278170000
H         3.34623857510000   -0.00322101180000    0.80599918340000
H         1.22308222760000    2.84361334600000    0.19356788550000
H        -1.21969043300000    2.84505276960000    0.19376934430000
H        -3.34577436040000    0.00263540180000    0.80982421150000
H        -3.21020493420000    2.44072805490000   -1.02796105330000
H        -4.70328585700000    1.68092140030000   -0.29281800800000
H        -2.46468187710000   -1.75527243450000   -0.05136384820000
H        -1.23713622160000   -3.86193033430000   -0.17044794540000
H         1.23191862490000   -3.86350147120000   -0.17183737100000
H         2.46235979890000   -1.75867143070000   -0.05374218700000
$end

$rem
BASIS = 6-31G*
GUI = 2
METHOD = B3LYP
PRINT_ORBITALS false
MOLDEN_FORMAT false
--------------------------------------------------------------

             Standard Nuclear Orientation (Angstroms)
    I     Atom           X                Y                Z
 ----------------------------------------------------------------
    1      C       3.6334943491    -1.6632443872     0.3784075548
    2      C       2.8768652961    -0.7495436161    -0.2145138408
    3      C       1.4170432462    -0.7112630364    -0.1406038958
    4      C       0.6979897085    -1.8862994605    -0.1584383249
    5      C      -0.6957283666    -1.8871199515    -0.1586696583
    6      C      -1.4160413614    -0.7128840049    -0.1413332465
    7      C      -2.8758592381    -0.7528380386    -0.2156419150
    8      C      -3.6314687265    -1.6654348070     0.3802380274
    9      C      -0.7115905690     0.5240637852    -0.0804201781
   10      C      -1.3860051028     1.7594172082     0.0233736504
   11      C      -0.7019569955     2.9396992216     0.1078660963
   12      C       0.6981157265     2.9405613630     0.1085579059
   13      C       1.3837842930     1.7611641406     0.0246584421
   14      C       0.7111193696     0.5249136429    -0.0798625967
   15      H       4.7053483536    -1.6646752540     0.2759849377
   16      H       3.2133102637    -2.4329164985     1.0042773001
   17      H       3.3462312191     0.0216468284    -0.8114713364
   18      H       1.2230251466    -2.8285615883    -0.2151167553
   19      H      -1.2197475385    -2.8299574869    -0.2153275354
   20      H      -3.3457818147     0.0159281545    -0.8153326445
   21      H      -3.2102557487    -2.4324994433     1.0086642079
   22      H      -4.7033230628    -1.6685302628     0.2778200533
   23      H      -2.4646593571     1.7689326587     0.0557627705
   24      H      -1.2370772425     3.8748636786     0.1867343587
   25      H       1.2319776301     3.8763841283     0.1881338429
   26      H       2.4623823757     1.7722327287     0.0581626762
 ----------------------------------------------------------------

    8    -540.6819455526      3.22e-06  Convergence criterion met
 Total energy in the final basis set =     -540.6819455526

                    Orbital Energies (a.u.)
 --------------------------------------------------------------

 Alpha MOs
 -- Occupied --
-10.1942 -10.1938 -10.1935 -10.1934 -10.1894 -10.1894 -10.1862 -10.1858
-10.1849 -10.1848 -10.1845 -10.1839 -10.1799 -10.1799  -0.8804  -0.8288
 -0.8137  -0.7648  -0.7492  -0.7421  -0.7035  -0.6368  -0.6161  -0.6139
 -0.5757  -0.5438  -0.5193  -0.5043  -0.4904  -0.4668  -0.4568  -0.4384
 -0.4280  -0.4171  -0.4169  -0.3998  -0.3952  -0.3814  -0.3661  -0.3588
 -0.3361  -0.3315  -0.3212  -0.3078  -0.2658  -0.2564  -0.2439  -0.2007

          Ground-State Mulliken Net Atomic Charges

     Atom                 Charge (a.u.)
  ----------------------------------------
      1 C                    -0.336897
      2 C                    -0.131330
      3 C                     0.105003
      4 C                    -0.197324
      5 C                    -0.197249
      6 C                     0.104827
      7 C                    -0.131498
      8 C                    -0.336782
      9 C                     0.072482
     10 C                    -0.196505
     11 C                    -0.129994
     12 C                    -0.130001
     13 C                    -0.196511
     14 C                     0.072382
     15 H                     0.142236
     16 H                     0.145202
     17 H                     0.139741
     18 H                     0.129864
     19 H                     0.129882
     20 H                     0.139796
     21 H                     0.145226
     22 H                     0.142238
     23 H                     0.129798
     24 H                     0.127812
     25 H                     0.127809
     26 H                     0.129794
  ----------------------------------------
  Sum of atomic charges =     0.000000

                    Cartesian Multipole Moments
 -----------------------------------------------------------------
    Charge (ESU x 10^10)
                 0.0000
    Dipole Moment (Debye)
         X      -0.0009      Y       0.1429      Z      -0.0447
       Tot       0.1497
    Quadrupole Moments (Debye-Ang)
        XX     -72.9583     XY       0.0014     YY     -73.4392
        XZ       0.0043     YZ      -1.5789     ZZ     -85.5028

 Total job time:  40.34s(wall), 40.21s(cpu)
        *  Thank you very much for using Q-Chem.  Have a nice day.  *
