 Q-Chem 5.2, Q-Chem, Inc., Pleasanton, CA (2019)
 Q-Chem 5.2.1 for Intel X86 EM64T Linux

User input:
--------------------------------------------------------------
$molecule
0 1
C         2.80307597270000   -2.20954128650000    0.26083919880000
C         2.54143428050000   -0.99184316940000   -0.19640340690000
C         1.25120768790000   -0.31694316840000   -0.09025635630000
C         0.05597709200000   -1.01808487030000   -0.08396812470000
C        -1.18059387410000   -0.36865954060000   -0.01966213930000
C        -2.47016978600000   -1.04024895580000   -0.01436742910000
C        -2.67105390950000   -2.35273391140000   -0.03361648550000
C        -1.10028547060000    1.02454982630000    0.02613842040000
F        -2.22937056780000    1.75368544770000    0.07184423380000
N         0.00287084330000    1.72828323400000    0.03710277180000
C         1.17173932280000    1.09452047970000   -0.01424473750000
N         2.27092869630000    1.89669793940000   -0.02344454040000
H         3.77228591230000   -2.66134796750000    0.13883257930000
H         2.06707853440000   -2.79516194640000    0.78514824390000
H         3.32178734380000   -0.43267660970000   -0.69766678780000
H         0.08375705630000   -2.09348673970000   -0.15810820770000
H        -3.32241092190000   -0.37381533510000    0.01129469730000
H        -1.86646686180000   -3.06774516090000   -0.05669638820000
H        -3.66581301540000   -2.76274099090000   -0.02660836350000
H         2.09385032860000    2.86829694820000    0.16992812330000
H         3.15702235920000    1.52062499660000    0.26257084780000
$end

$rem
BASIS = 6-31G*
GUI = 2
METHOD = B3LYP
PRINT_ORBITALS false
MOLDEN_FORMAT false
--------------------------------------------------------------

             Standard Nuclear Orientation (Angstroms)
    I     Atom           X                Y                Z
 ----------------------------------------------------------------
    1      C       2.6368384587    -2.2912762477     0.2489011384
    2      C       2.4413667193    -1.0600649007    -0.2052192180
    3      C       1.1901721699    -0.3158599480    -0.0951598891
    4      C      -0.0416012091    -0.9506039450    -0.0881025192
    5      C      -1.2406884195    -0.2346753216    -0.0200412176
    6      C      -2.5650513637    -0.8347498325    -0.0137338789
    7      C      -2.8374472353    -2.1342388392    -0.0354255009
    8      C      -1.0842254825     1.1519509155     0.0286054581
    9      F      -2.1716618052     1.9416344340     0.0780333556
   10      N       0.0557841040     1.7942789120     0.0389817136
   11      C       1.1881499671     1.0976624777    -0.0159583750
   12      N       2.3295463406     1.8385493502    -0.0255266897
   13      H       3.5796696874    -2.7951317907     0.1240745979
   14      H       1.8708530607    -2.8369530043     0.7733503817
   15      H       3.2502357019    -0.5432801146    -0.7067644062
   16      H      -0.0728077866    -2.0257459555    -0.1646104646
   17      H      -3.3795233769    -0.1227683135     0.0149876382
   18      H      -2.0732099616    -2.8921250407    -0.0615785370
   19      H      -3.8531263504    -2.4892489559    -0.0274036535
   20      H       2.2062142568     2.8179397023     0.1702744971
   21      H       3.1942562741     1.4139395813     0.2579885921
 ----------------------------------------------------------------

    9    -557.6865061320      3.07e-06  Convergence criterion met
 Total energy in the final basis set =     -557.6865061320

                    Orbital Energies (a.u.)
 --------------------------------------------------------------

 Alpha MOs
 -- Occupied --
-24.7040 -14.3567 -14.3259 -10.2975 -10.2701 -10.2052 -10.2006 -10.1995
-10.1965 -10.1886 -10.1877 -10.1752  -1.2200  -0.9807  -0.9052  -0.8350
 -0.8039  -0.7491  -0.7272  -0.6548  -0.6509  -0.5838  -0.5626  -0.5591
 -0.5506  -0.4945  -0.4924  -0.4825  -0.4702  -0.4466  -0.4279  -0.4195
 -0.4132  -0.4051  -0.3803  -0.3717  -0.3480  -0.3397  -0.3115  -0.2833
 -0.2778  -0.2481  -0.2001

          Ground-State Mulliken Net Atomic Charges

     Atom                 Charge (a.u.)
  ----------------------------------------
      1 C                    -0.338552
      2 C                    -0.151634
      3 C                     0.149475
      4 C                    -0.226189
      5 C                     0.082808
      6 C                    -0.114529
      7 C                    -0.357714
      8 C                     0.444490
      9 F                    -0.268166
     10 N                    -0.543853
     11 C                     0.423349
     12 N                    -0.773153
     13 H                     0.145630
     14 H                     0.146145
     15 H                     0.132875
     16 H                     0.143847
     17 H                     0.143422
     18 H                     0.135462
     19 H                     0.144040
     20 H                     0.346611
     21 H                     0.335636
  ----------------------------------------
  Sum of atomic charges =     0.000000

                    Cartesian Multipole Moments
 -----------------------------------------------------------------
    Charge (ESU x 10^10)
                 0.0000
    Dipole Moment (Debye)
         X       2.8771      Y      -1.1344      Z       0.6018
       Tot       3.1507
    Quadrupole Moments (Debye-Ang)
        XX     -59.0606     XY       5.6453     YY     -66.3616
        XZ       1.5785     YZ       0.7931     ZZ     -71.8350

 Total job time:  25.92s(wall), 25.83s(cpu)
        *  Thank you very much for using Q-Chem.  Have a nice day.  *
