 Q-Chem 5.2, Q-Chem, Inc., Pleasanton, CA (2019)
 Q-Chem 5.2.1 for Intel X86 EM64T Linux

User input:
--------------------------------------------------------------
$molecule
0 1
C        -3.21675893970000   -2.70073331430000    0.24592412500000
C        -2.98131325270000   -1.40962767960000    0.46720124590000
C        -1.78843014130000   -0.70433024370000    0.08226665050000
C        -0.67117768210000   -1.14981194280000   -0.57436268800000
C         0.31324257180000   -0.16332589910000   -0.77730060560000
C         1.61847003940000   -0.48128372500000   -1.43940528370000
C         2.43464815230000   -1.49534156970000   -0.62579142840000
C         2.73444243400000   -1.04191787280000    0.80306642080000
C         3.67674798600000    0.15352581580000    0.87326863290000
C        -0.05938509540000    1.06553812790000   -0.27296586460000
C         0.65884148520000    2.30956694090000   -0.31069830310000
C         0.26603982970000    3.43542409230000    0.27979782350000
S        -1.63605388290000    0.98346965360000    0.46322343470000
H        -4.13427358880000   -3.16385941150000    0.56297094650000
H        -2.50705356240000   -3.33547097290000   -0.25560313070000
H        -3.72248307480000   -0.80745878040000    0.97684555800000
H        -0.55649581530000   -2.16453953370000   -0.91110365110000
H         2.20461019190000    0.42390032180000   -1.58925864220000
H         1.41716419270000   -0.91213945550000   -2.42477749030000
H         3.37491974950000   -1.68614388570000   -1.14865880700000
H         1.88340654820000   -2.43707386600000   -0.58130334870000
H         3.18707543690000   -1.87976353650000    1.33914969490000
H         1.79758010240000   -0.79550378190000    1.30750939240000
H         4.59237552570000   -0.04855545310000    0.32078827870000
H         3.94005037440000    0.36305364140000    1.90751045900000
H         3.21015655480000    1.04383331620000    0.46139630510000
H         1.58078202980000    2.29954688770000   -0.87733743250000
H        -0.64682124620000    3.48344847980000    0.85008285100000
H         0.84357627690000    4.34018632920000    0.21139410930000
$end

$rem
BASIS = 6-31G*
GUI = 2
METHOD = B3LYP
PRINT_ORBITALS false
MOLDEN_FORMAT false
--------------------------------------------------------------

             Standard Nuclear Orientation (Angstroms)
    I     Atom           X                Y                Z
 ----------------------------------------------------------------
    1      C       3.8725351057    -1.7359818922    -0.2622193712
    2      C       3.3243889710    -0.5316531673    -0.4053281866
    3      C       1.9800552053    -0.1807449047    -0.0335495549
    4      C       0.9921714062    -0.9428385028     0.5331673385
    5      C      -0.2162019396    -0.2538931775     0.7536439698
    6      C      -1.4183374994    -0.9404841320     1.3250995526
    7      C      -1.9244307946    -2.0584829571     0.4029413593
    8      C      -2.2841072216    -1.5821974708    -1.0044993737
    9      C      -3.4961360747    -0.6593161060    -1.0395673425
   10      C      -0.1517403226     1.0653078331     0.3550651197
   11      C      -1.1628732401     2.0826021316     0.4422624755
   12      C      -1.0500534822     3.3143454092    -0.0482610629
   13      S       1.4166361022     1.4398652719    -0.3040983649
   14      H       4.8870710075    -1.9276471454    -0.5635811719
   15      H       3.3315701949    -2.5661932974     0.1575534174
   16      H       3.9042913534     0.2756661523    -0.8338444130
   17      H       1.1280629765    -1.9774456657     0.7926668381
   18      H      -2.2193617951    -0.2259573773     1.5072699688
   19      H      -1.1455795552    -1.3843108528     2.2872534050
   20      H      -2.8015905185    -2.5198498505     0.8629825578
   21      H      -1.1512056183    -2.8254171987     0.3214495876
   22      H      -2.4922105669    -2.4612261908    -1.6195187029
   23      H      -1.4249333047    -1.0694988372    -1.4425107158
   24      H      -4.3475457339    -1.1277516576    -0.5495521400
   25      H      -3.7711402405    -0.4406663739    -2.0688638089
   26      H      -3.2839189421     0.2837298162    -0.5439645775
   27      H      -2.0695547830     1.7967592165     0.9593476521
   28      H      -0.1616751614     3.6348712574    -0.5668108081
   29      H      -1.8400776281     4.0371152730     0.0531672076
 ----------------------------------------------------------------

    9    -865.0581005476      3.74e-06  Convergence criterion met
 Total energy in the final basis set =     -865.0581005476

                    Orbital Energies (a.u.)
 --------------------------------------------------------------

 Alpha MOs
 -- Occupied --
-88.8991 -10.2172 -10.2129 -10.1984 -10.1956 -10.1939 -10.1875 -10.1840
-10.1830 -10.1797 -10.1787 -10.1726 -10.1664  -7.9611  -5.9251  -5.9215
 -5.9180  -0.8895  -0.8129  -0.8003  -0.7720  -0.7507  -0.7089  -0.6971
 -0.6446  -0.6222  -0.5887  -0.5610  -0.5375  -0.5249  -0.4854  -0.4645
 -0.4609  -0.4556  -0.4435  -0.4225  -0.4069  -0.3991  -0.3952  -0.3837
 -0.3771  -0.3649  -0.3603  -0.3534  -0.3372  -0.3274  -0.3218  -0.3180
 -0.3163  -0.2682  -0.2437  -0.1962

          Ground-State Mulliken Net Atomic Charges

     Atom                 Charge (a.u.)
  ----------------------------------------
      1 C                    -0.340985
      2 C                    -0.088342
      3 C                    -0.126245
      4 C                    -0.161774
      5 C                     0.157129
      6 C                    -0.344037
      7 C                    -0.254257
      8 C                    -0.252818
      9 C                    -0.447406
     10 C                    -0.212132
     11 C                    -0.052380
     12 C                    -0.379971
     13 S                     0.230441
     14 H                     0.147229
     15 H                     0.142679
     16 H                     0.137862
     17 H                     0.134377
     18 H                     0.145288
     19 H                     0.148926
     20 H                     0.131128
     21 H                     0.133319
     22 H                     0.130251
     23 H                     0.151672
     24 H                     0.138201
     25 H                     0.145622
     26 H                     0.146657
     27 H                     0.138547
     28 H                     0.156277
     29 H                     0.144743
  ----------------------------------------
  Sum of atomic charges =     0.000000

                    Cartesian Multipole Moments
 -----------------------------------------------------------------
    Charge (ESU x 10^10)
                 0.0000
    Dipole Moment (Debye)
         X      -0.4175      Y      -0.9380      Z       0.3223
       Tot       1.0761
    Quadrupole Moments (Debye-Ang)
        XX     -81.7624     XY      -2.0386     YY     -82.8844
        XZ      -3.0753     YZ      -2.0486     ZZ     -88.7360

 Total job time:  44.16s(wall), 44.03s(cpu)
        *  Thank you very much for using Q-Chem.  Have a nice day.  *
