 Q-Chem 5.2, Q-Chem, Inc., Pleasanton, CA (2019)
 Q-Chem 5.2.1 for Intel X86 EM64T Linux

User input:
--------------------------------------------------------------
$molecule
0 1
C         3.27983576550000    1.77233731790000   -0.24879219030000
C         1.98079862080000    1.83075452140000    0.01739421630000
C         1.05377543720000    0.70566812120000    0.03300943980000
C         1.48200287440000   -0.61833728910000    0.01368655320000
C         0.55349515490000   -1.63811611290000    0.02982452170000
F         0.98726633890000   -2.92004275400000    0.01349195500000
C        -0.80234262170000   -1.39449373500000    0.07655472810000
C        -1.26171969170000   -0.07966605440000    0.10819103480000
C        -2.69818464180000    0.19524324840000    0.19711504540000
C        -3.64683733880000   -0.55386114610000   -0.34774937260000
C        -0.32847495380000    0.96751274130000    0.07922912010000
O        -0.72101142280000    2.26924706110000    0.06158206810000
H         3.88999176070000    2.65882769660000   -0.23757435500000
H         3.78680821450000    0.85516282820000   -0.49554170680000
H         1.52265221840000    2.78606994900000    0.23162794360000
H         2.53166946420000   -0.85876167410000   -0.00319761040000
H        -1.49611926320000   -2.21814003900000    0.11636756760000
H        -2.98836422350000    1.06881328320000    0.77320459320000
H        -3.41661442650000   -1.42305734770000   -0.93962245410000
H        -4.69009190110000   -0.31595859410000   -0.23210495960000
H        -1.68447966550000    2.32053533180000    0.04996038840000
$end

$rem
BASIS = 6-31G*
GUI = 2
METHOD = B3LYP
PRINT_ORBITALS false
MOLDEN_FORMAT false
--------------------------------------------------------------

             Standard Nuclear Orientation (Angstroms)
    I     Atom           X                Y                Z
 ----------------------------------------------------------------
    1      C       3.6758126917     0.6082218220    -0.2311110441
    2      C       2.4587475368     1.0714757819     0.0256251113
    3      C       1.2265936564     0.2923788842     0.0411191436
    4      C       1.2198835239    -1.0992459767     0.0323067053
    5      C       0.0192131419    -1.7778394173     0.0477159559
    6      F       0.0308993211    -3.1312008898     0.0416939982
    7      C      -1.1928814634    -1.1225732288     0.0835564573
    8      C      -1.2186889005     0.2701559893     0.1045154474
    9      C      -2.4978075908     0.9806458264     0.1818053223
   10      C      -3.6303174917     0.5612183917    -0.3654409831
   11      C      -0.0048966338     0.9732010099     0.0761606270
   12      O       0.0289415679     2.3322417798     0.0483811548
   13      H       4.5322960756     1.2598413287    -0.2206419780
   14      H       3.8721048923    -0.4232568299    -0.4690954870
   15      H       2.3209108930     2.1236892118     0.2312211709
   16      H       2.1419858015    -1.6556178892     0.0241461805
   17      H      -2.1094178588    -1.6879897670     0.1231733575
   18      H      -2.5033903665     1.9054845191     0.7508836890
   19      H      -3.6802466928    -0.3408579972    -0.9507474279
   20      H      -4.5475993710     1.1139402225    -0.2584649673
   21      H      -0.8702206292     2.6818064766     0.0297137818
 ----------------------------------------------------------------

    9    -561.4909135868      1.72e-06  Convergence criterion met
 Total energy in the final basis set =     -561.4909135868

                    Orbital Energies (a.u.)
 --------------------------------------------------------------

 Alpha MOs
 -- Occupied --
-24.6962 -19.1867 -10.2627 -10.2544 -10.2084 -10.2055 -10.2006 -10.1949
-10.1943 -10.1925 -10.1867 -10.1781  -1.2072  -1.0726  -0.8706  -0.8168
 -0.7803  -0.7370  -0.7288  -0.6602  -0.6198  -0.5952  -0.5614  -0.5506
 -0.5243  -0.5063  -0.4703  -0.4592  -0.4525  -0.4425  -0.4352  -0.4289
 -0.4138  -0.4019  -0.3792  -0.3733  -0.3588  -0.3393  -0.3359  -0.3180
 -0.2803  -0.2300  -0.2113

          Ground-State Mulliken Net Atomic Charges

     Atom                 Charge (a.u.)
  ----------------------------------------
      1 C                    -0.349955
      2 C                    -0.101192
      3 C                     0.138774
      4 C                    -0.280120
      5 C                     0.395000
      6 F                    -0.307202
      7 C                    -0.275973
      8 C                     0.159276
      9 C                    -0.169834
     10 C                    -0.331653
     11 C                     0.182845
     12 O                    -0.641271
     13 H                     0.145156
     14 H                     0.141317
     15 H                     0.155333
     16 H                     0.144021
     17 H                     0.144867
     18 H                     0.131067
     19 H                     0.154578
     20 H                     0.149535
     21 H                     0.415431
  ----------------------------------------
  Sum of atomic charges =     0.000000

                    Cartesian Multipole Moments
 -----------------------------------------------------------------
    Charge (ESU x 10^10)
                 0.0000
    Dipole Moment (Debye)
         X      -1.5910      Y       1.5573      Z      -0.0060
       Tot       2.2263
    Quadrupole Moments (Debye-Ang)
        XX     -59.0139     XY      -4.1045     YY     -68.5593
        XZ       0.0964     YZ       1.5446     ZZ     -71.5135

 Total job time:  28.12s(wall), 28.01s(cpu)
        *  Thank you very much for using Q-Chem.  Have a nice day.  *
