 Q-Chem 5.2, Q-Chem, Inc., Pleasanton, CA (2019)
 Q-Chem 5.2.1 for Intel X86 EM64T Linux

User input:
--------------------------------------------------------------
$molecule
0 1
C        -3.18665960230000    1.02870385990000    0.00139141580000
C        -2.61485199340000   -0.17071109120000   -0.00147129510000
C        -1.19591519560000   -0.39362520160000   -0.00073169250000
N        -0.65546190520000   -1.57026780430000   -0.00061182310000
N         0.65546350260000   -1.57026820210000    0.00041990210000
C         1.19591848690000   -0.39362562480000    0.00080201310000
C         2.61485163650000   -0.17070762990000    0.00164322070000
C         3.18665048490000    1.02870405710000   -0.00185619580000
S         0.00000245940000    0.89855088120000    0.00019022610000
H        -4.25625352490000    1.14205030330000    0.00080937230000
H        -2.60229081540000    1.93477567050000    0.00457942020000
H        -3.19987716170000   -1.07964439360000   -0.00435367360000
H         3.19987767710000   -1.07964227460000    0.00506261710000
H         2.60227294760000    1.93477905100000   -0.00563521700000
H         4.25624413010000    1.14205397690000   -0.00119435240000
$end

$rem
BASIS = 6-31G*
GUI = 2
METHOD = B3LYP
PRINT_ORBITALS false
MOLDEN_FORMAT false
--------------------------------------------------------------

             Standard Nuclear Orientation (Angstroms)
    I     Atom           X                Y                Z
 ----------------------------------------------------------------
    1      C       3.1866594601    -1.0014833892     0.0013915428
    2      C       2.6148517901     0.1979314824    -0.0014921706
    3      C       1.1959149915     0.4208455647    -0.0007455673
    4      N       0.6554616655     1.5974881529    -0.0006464719
    5      N      -0.6554637337     1.5974885323     0.0003961429
    6      C      -1.1959186782     0.4208459467     0.0008080068
    7      C      -2.6148518138     0.1979279260     0.0016657875
    8      C      -3.1866506539    -1.0014838536    -0.0018031269
    9      S      -0.0000026155    -0.8713305351     0.0002140296
   10      H       4.2562533814    -1.1148298120     0.0008030481
   11      H       2.6022907279    -1.9075551493     0.0046038556
   12      H       3.1998769061     1.1068647408    -0.0043989243
   13      H      -3.1998778543     1.1068626258     0.0050705280
   14      H      -2.6022731197    -1.9075589103    -0.0055675482
   15      H      -4.2562442900    -1.1148337923    -0.0011299649
 ----------------------------------------------------------------

    9    -739.8700681189      4.82e-06  Convergence criterion met
 Total energy in the final basis set =     -739.8700681189

                    Orbital Energies (a.u.)
 --------------------------------------------------------------

 Alpha MOs
 -- Occupied --
-88.9205 -14.3632 -14.3629 -10.2624 -10.2624 -10.2139 -10.2139 -10.2051
-10.2051  -7.9830  -5.9463  -5.9436  -5.9401  -1.0534  -0.8600  -0.8361
 -0.7747  -0.7742  -0.6693  -0.6209  -0.5758  -0.5626  -0.5111  -0.4686
 -0.4539  -0.4515  -0.4459  -0.4178  -0.3937  -0.3765  -0.3516  -0.3148
 -0.3096  -0.2823  -0.2556  -0.2388

          Ground-State Mulliken Net Atomic Charges

     Atom                 Charge (a.u.)
  ----------------------------------------
      1 C                    -0.352302
      2 C                    -0.066620
      3 C                     0.096763
      4 N                    -0.279814
      5 N                    -0.279815
      6 C                     0.096763
      7 C                    -0.066616
      8 C                    -0.352304
      9 S                     0.210142
     10 H                     0.162107
     11 H                     0.163845
     12 H                     0.170950
     13 H                     0.170950
     14 H                     0.163845
     15 H                     0.162106
  ----------------------------------------
  Sum of atomic charges =     0.000000

                    Cartesian Multipole Moments
 -----------------------------------------------------------------
    Charge (ESU x 10^10)
                 0.0000
    Dipole Moment (Debye)
         X      -0.0000      Y      -2.9849      Z       0.0003
       Tot       2.9849
    Quadrupole Moments (Debye-Ang)
        XX     -45.7405     XY      -0.0000     YY     -62.8961
        XZ      -0.0070     YZ       0.0023     ZZ     -61.5260

 Total job time:  15.04s(wall), 14.16s(cpu)
        *  Thank you very much for using Q-Chem.  Have a nice day.  *
