 Q-Chem 5.2, Q-Chem, Inc., Pleasanton, CA (2019)
 Q-Chem 5.2.1 for Intel X86 EM64T Linux

User input:
--------------------------------------------------------------
$molecule
0 1
C         3.84271057550000    0.68491680360000   -0.11077548660000
C         2.99799097380000   -0.33688419100000   -0.03058464030000
C         1.54387999980000   -0.27069441280000    0.01392115910000
C         0.81321286550000   -1.45739539300000    0.08991196610000
C        -0.56354561380000   -1.43558797130000    0.13434040710000
C        -1.27068232370000   -0.23414075100000    0.10514227970000
C        -2.73024400620000   -0.23156694090000    0.16443158850000
C        -3.51212433470000   -1.18581543740000   -0.32379207070000
C        -0.54895458060000    0.96816353980000    0.03311356180000
C        -1.25632576050000    2.29058664830000   -0.01641307020000
C         0.83297696310000    0.92925910510000   -0.01347083610000
H         4.90761369240000    0.52902264100000   -0.13857309530000
H         3.51805623610000    1.71046407830000   -0.15222086350000
H         3.39977374040000   -1.34288082740000    0.00649246070000
H         1.33557737020000   -2.40347046740000    0.11867318800000
H        -1.10873956560000   -2.36429710640000    0.21473572760000
H        -3.18318253990000    0.62871609520000    0.63954438470000
H        -3.11639733710000   -2.04569768190000   -0.83795403820000
H        -4.58466228800000   -1.13336625860000   -0.24356231030000
H        -1.78335743830000    2.48000525750000    0.91905430700000
H        -1.98641278370000    2.30762478060000   -0.82420200430000
H        -0.54568937300000    3.09821210730000   -0.17458368000000
H         1.37306277010000    1.86236522630000   -0.07349235220000
$end

$rem
BASIS = 6-31G*
GUI = 2
METHOD = B3LYP
PRINT_ORBITALS false
MOLDEN_FORMAT false
--------------------------------------------------------------

             Standard Nuclear Orientation (Angstroms)
    I     Atom           X                Y                Z
 ----------------------------------------------------------------
    1      C       3.8968703870    -0.3264045582     0.1152513903
    2      C       2.9668010520     0.6179795710     0.0305832227
    3      C       1.5240036584     0.4256976578    -0.0159347795
    4      C       0.6932370415     1.5442704365    -0.0967434874
    5      C      -0.6763519480     1.4029172415    -0.1432045927
    6      C      -1.2765978459     0.1447202930    -0.1113364077
    7      C      -2.7303201262     0.0152968924    -0.1728446742
    8      C      -3.5929426265     0.8995297664     0.3112049399
    9      C      -0.4533755652    -0.9901845315    -0.0344547137
   10      C      -1.0433919542    -2.3688601330     0.0181190244
   11      C       0.9198792481    -0.8313435066     0.0141168752
   12      H       4.9441736555    -0.0785882645     0.1441874163
   13      H       3.6623746902    -1.3761320979     0.1594015035
   14      H       3.2798229941     1.6549377136    -0.0090199283
   15      H       1.1315712285     2.5320240760    -0.1276598002
   16      H      -1.2999465240     2.2805579951    -0.2273296341
   17      H      -3.1060338146    -0.8824627839    -0.6459611235
   18      H      -3.2742596590     1.7920407115     0.8232842686
   19      H      -4.6567359936     0.7539488846     0.2295026072
   20      H      -1.5503188942    -2.6060912413    -0.9175558612
   21      H      -1.7706910264    -2.4467975270     0.8248421143
   22      H      -0.2656276512    -3.1112836035     0.1798934921
   23      H       1.5388030694    -1.7138686375     0.0778741616
 ----------------------------------------------------------------

    8    -426.3617024610      4.56e-06  Convergence criterion met
 Total energy in the final basis set =     -426.3617024610

                    Orbital Energies (a.u.)
 --------------------------------------------------------------

 Alpha MOs
 -- Occupied --
-10.1922 -10.1899 -10.1890 -10.1881 -10.1872 -10.1820 -10.1811 -10.1801
-10.1799 -10.1791 -10.1769  -0.8663  -0.8074  -0.7731  -0.7618  -0.7131
 -0.6861  -0.6355  -0.5872  -0.5732  -0.5456  -0.4973  -0.4871  -0.4515
 -0.4411  -0.4397  -0.4246  -0.4079  -0.4044  -0.3874  -0.3831  -0.3654
 -0.3541  -0.3361  -0.3291  -0.3095  -0.2663  -0.2431  -0.2086

          Ground-State Mulliken Net Atomic Charges

     Atom                 Charge (a.u.)
  ----------------------------------------
      1 C                    -0.352753
      2 C                    -0.117871
      3 C                     0.196025
      4 C                    -0.204446
      5 C                    -0.184614
      6 C                     0.106952
      7 C                    -0.127454
      8 C                    -0.339457
      9 C                     0.131884
     10 C                    -0.536104
     11 C                    -0.259111
     12 H                     0.142931
     13 H                     0.141952
     14 H                     0.125614
     15 H                     0.124747
     16 H                     0.127939
     17 H                     0.131521
     18 H                     0.144326
     19 H                     0.141972
     20 H                     0.163040
     21 H                     0.167551
     22 H                     0.156775
     23 H                     0.118579
  ----------------------------------------
  Sum of atomic charges =     0.000000

                    Cartesian Multipole Moments
 -----------------------------------------------------------------
    Charge (ESU x 10^10)
                 0.0000
    Dipole Moment (Debye)
         X      -0.2937      Y      -0.3038      Z      -0.0249
       Tot       0.4233
    Quadrupole Moments (Debye-Ang)
        XX     -60.6175     XY       0.4398     YY     -59.5239
        XZ       0.3254     YZ       0.6620     ZZ     -69.5581

 Total job time:  22.86s(wall), 22.77s(cpu)
        *  Thank you very much for using Q-Chem.  Have a nice day.  *
