 Q-Chem 5.2, Q-Chem, Inc., Pleasanton, CA (2019)
 Q-Chem 5.2.1 for Intel X86 EM64T Linux

User input:
--------------------------------------------------------------
$molecule
0 1
C        -4.66448768270000   -0.09302049330000   -0.03558614800000
C        -3.48802331330000    0.51681516430000   -0.12006137160000
C        -2.17756835660000   -0.11872865040000   -0.08363596110000
C        -1.99356773130000   -1.50271608650000   -0.04949766880000
C        -0.72856059310000   -2.04401011840000   -0.00697540950000
C         0.41693071670000   -1.24522643080000    0.02033797870000
C         1.71776607530000   -1.91335144350000    0.12484817650000
C         2.66820908130000   -1.61348465100000    0.99631429060000
C         0.23522828000000    0.14013929210000   -0.05375323680000
C         1.39987476800000    1.08992553820000   -0.12677573500000
F         2.42202274960000    0.63706575210000   -0.86906794340000
F         1.05743456130000    2.27236230810000   -0.66877031530000
F         1.91227307700000    1.39001057240000    1.08512651780000
C        -1.03967420760000    0.68526838190000   -0.09996883610000
H        -5.58440404180000    0.46447492220000   -0.06904157360000
H        -4.76485203220000   -1.15928639180000    0.07297858640000
H        -3.46085786280000    1.59465234830000   -0.21924553910000
H        -2.84797714680000   -2.16077298790000   -0.06185119080000
H        -0.60622659480000   -3.11684365220000    0.02475384590000
H         1.83980368940000   -2.76177216120000   -0.53718887690000
H         2.57104080070000   -0.81088695730000    1.70679141930000
H         3.58475850190000   -2.17612127790000    1.03736189210000
H        -1.15253984380000    1.75796932880000   -0.15713016340000
$end

$rem
BASIS = 6-31G*
GUI = 2
METHOD = B3LYP
PRINT_ORBITALS false
MOLDEN_FORMAT false
--------------------------------------------------------------

             Standard Nuclear Orientation (Angstroms)
    I     Atom           X                Y                Z
 ----------------------------------------------------------------
    1      C       4.5767317895     0.2616569593    -0.1908487566
    2      C       3.3660458603     0.8024821339    -0.1211944911
    3      C       2.1020094178     0.0867545362    -0.0094768901
    4      C       2.0121699575    -1.2990667239     0.1384121997
    5      C       0.7866868120    -1.9194341837     0.2299857018
    6      C      -0.4110469573    -1.2038928015     0.1637581418
    7      C      -1.6662669529    -1.9599509138     0.2115591624
    8      C      -2.6726416211    -1.8337033494    -0.6393149579
    9      C      -0.3218270977     0.1882433485     0.0554058156
   10      C      -1.5445892420     1.0648518619     0.0708296077
   11      F      -2.4994163606     0.6472861795     0.9162941423
   12      F      -1.2605537138     2.3258338135     0.4428893765
   13      F      -2.1294418840     1.1753109185    -1.1403913915
   14      C       0.9134181544     0.8134969747    -0.0335044143
   15      H       5.4567635565     0.8753165827    -0.2753026914
   16      H       4.7451965710    -0.8013638254    -0.1711333044
   17      H       3.2693261675     1.8803401177    -0.1554862340
   18      H       2.9094677275    -1.8954255356     0.1876039041
   19      H       0.7370437418    -2.9930908302     0.3383421275
   20      H      -1.7003692861    -2.7229898658     0.9794214823
   21      H      -2.6623189554    -1.1237552523    -1.4481719447
   22      H      -3.5493000970    -2.4532094989    -0.5619213704
   23      H       0.9547574771     1.8896728512    -0.1161478278
 ----------------------------------------------------------------

    9    -724.0750416215      3.87e-06  Convergence criterion met
 Total energy in the final basis set =     -724.0750416215

                    Orbital Energies (a.u.)
 --------------------------------------------------------------

 Alpha MOs
 -- Occupied --
-24.7180 -24.7150 -24.7140 -10.4261 -10.2149 -10.2142 -10.2076 -10.2037
-10.2018 -10.2005 -10.1987 -10.1959 -10.1885 -10.1842  -1.3006  -1.2083
 -1.2068  -0.8859  -0.8214  -0.7863  -0.7737  -0.7318  -0.6937  -0.6459
 -0.6253  -0.5936  -0.5863  -0.5755  -0.5691  -0.5255  -0.5047  -0.4952
 -0.4700  -0.4569  -0.4517  -0.4472  -0.4423  -0.4229  -0.4139  -0.4047
 -0.4018  -0.3982  -0.3898  -0.3859  -0.3658  -0.3522  -0.3481  -0.3171
 -0.2745  -0.2687  -0.2268

          Ground-State Mulliken Net Atomic Charges

     Atom                 Charge (a.u.)
  ----------------------------------------
      1 C                    -0.352301
      2 C                    -0.110058
      3 C                     0.178382
      4 C                    -0.168485
      5 C                    -0.187740
      6 C                     0.119314
      7 C                    -0.144099
      8 C                    -0.321424
      9 C                    -0.066912
     10 C                     0.795444
     11 F                    -0.264083
     12 F                    -0.270417
     13 F                    -0.265238
     14 C                    -0.247537
     15 H                     0.149684
     16 H                     0.144985
     17 H                     0.133622
     18 H                     0.135144
     19 H                     0.137488
     20 H                     0.142788
     21 H                     0.160510
     22 H                     0.146940
     23 H                     0.153992
  ----------------------------------------
  Sum of atomic charges =     0.000000

                    Cartesian Multipole Moments
 -----------------------------------------------------------------
    Charge (ESU x 10^10)
                -0.0000
    Dipole Moment (Debye)
         X       1.8871      Y      -1.6149      Z      -0.0006
       Tot       2.4837
    Quadrupole Moments (Debye-Ang)
        XX     -73.7788     XY       3.4292     YY     -73.4904
        XZ       0.5288     YZ      -1.7385     ZZ     -81.3952

 Total job time:  38.55s(wall), 38.42s(cpu)
        *  Thank you very much for using Q-Chem.  Have a nice day.  *
