 Q-Chem 5.2, Q-Chem, Inc., Pleasanton, CA (2019)
 Q-Chem 5.2.1 for Intel X86 EM64T Linux

User input:
--------------------------------------------------------------
$molecule
0 1
C         1.62425949600000    2.60352655940000    0.43453704180000
C         0.55515302140000    2.19522657570000   -0.23549906770000
C        -0.02322234240000    0.85596372530000   -0.16327003750000
C        -1.41138546040000    0.72927142970000   -0.13636111040000
C        -2.00876741090000   -0.51097718330000    0.02149460100000
C        -3.49453131660000   -0.68166789120000    0.03691691180000
C        -1.15005174780000   -1.60120104500000    0.15552698630000
N         0.15848295880000   -1.51453920730000    0.08025403550000
C         0.73806887320000   -0.32814755590000   -0.09467211890000
C         2.18658802390000   -0.33785537120000   -0.27266615600000
C         2.95640215880000   -1.34852082900000    0.11058982100000
H         1.98332307720000    3.61617087270000    0.35922779050000
H         2.16464695840000    1.94991192740000    1.09873403080000
H         0.00512013290000    2.89855995100000   -0.85013287920000
H        -2.02479388140000    1.61766258100000   -0.21617965740000
H        -3.98986286290000    0.25090959010000    0.29748530800000
H        -3.78559730550000   -1.45093325540000    0.74915963840000
H        -3.84371142600000   -0.98915923660000   -0.94948782920000
H        -1.54329985610000   -2.59782196330000    0.31631540780000
H         2.60934460080000    0.52959824750000   -0.76115137320000
H         2.52969321940000   -2.20426844240000    0.60448268820000
H         4.02026835870000   -1.34962765500000   -0.05482203180000
$end

$rem
BASIS = 6-31G*
GUI = 2
METHOD = B3LYP
PRINT_ORBITALS false
MOLDEN_FORMAT false
--------------------------------------------------------------

             Standard Nuclear Orientation (Angstroms)
    I     Atom           X                Y                Z
 ----------------------------------------------------------------
    1      C       2.2190830389     2.1053242320     0.4577494419
    2      C       1.0787144657     1.9819290806    -0.2078172886
    3      C       0.1925913185     0.8221529160    -0.1524540094
    4      C      -1.1845404114     1.0359832974    -0.1129997733
    5      C      -2.0645073659    -0.0247926194     0.0298737928
    6      C      -3.5470760094     0.1702963267     0.0581239115
    7      C      -1.4957564810    -1.2933322125     0.1360579290
    8      N      -0.2058897992    -1.5257126134     0.0484071329
    9      C       0.6436192151    -0.5125187727    -0.1122689938
   10      C       2.0452148879    -0.8703945479    -0.3057589122
   11      C       2.5485964303    -2.0449693674     0.0519066159
   12      H       2.8130632222     3.0016637528     0.3960270858
   13      H       2.5884347394     1.3273687760     1.1048606894
   14      H       0.7123957355     2.8094946555    -0.8044197899
   15      H      -1.5640763739     2.0481407239    -0.1710473946
   16      H      -3.7992554620     1.1900795689     0.3398997996
   17      H      -4.0120416750    -0.5187656481     0.7601059887
   18      H      -3.9665565829    -0.0241351631    -0.9296536109
   19      H      -2.1184772263    -2.1674705576     0.2838796900
   20      H       2.6631553980    -0.1223974734    -0.7837407254
   21      H       1.9297007681    -2.7807571631     0.5355378186
   22      H       3.5792515196    -2.3013031751    -0.1247757635
 ----------------------------------------------------------------

    9    -442.3971691182      2.13e-06  Convergence criterion met
 Total energy in the final basis set =     -442.3971691182

                    Orbital Energies (a.u.)
 --------------------------------------------------------------

 Alpha MOs
 -- Occupied --
-14.3181 -10.2193 -10.2122 -10.1993 -10.1984 -10.1974 -10.1952 -10.1874
-10.1843 -10.1770 -10.1702  -0.9446  -0.8248  -0.8117  -0.7653  -0.7393
 -0.6921  -0.6345  -0.6286  -0.5677  -0.5588  -0.5058  -0.4920  -0.4683
 -0.4450  -0.4355  -0.4286  -0.4146  -0.4006  -0.3942  -0.3851  -0.3762
 -0.3639  -0.3437  -0.3045  -0.2891  -0.2567  -0.2454  -0.2156

          Ground-State Mulliken Net Atomic Charges

     Atom                 Charge (a.u.)
  ----------------------------------------
      1 C                    -0.338502
      2 C                    -0.140061
      3 C                     0.110821
      4 C                    -0.201029
      5 C                     0.154636
      6 C                    -0.532696
      7 C                    -0.005143
      8 N                    -0.479611
      9 C                     0.235170
     10 C                    -0.110270
     11 C                    -0.332159
     12 H                     0.145388
     13 H                     0.162870
     14 H                     0.136089
     15 H                     0.128976
     16 H                     0.159232
     17 H                     0.164221
     18 H                     0.171110
     19 H                     0.130569
     20 H                     0.140397
     21 H                     0.163361
     22 H                     0.136630
  ----------------------------------------
  Sum of atomic charges =     0.000000

                    Cartesian Multipole Moments
 -----------------------------------------------------------------
    Charge (ESU x 10^10)
                 0.0000
    Dipole Moment (Debye)
         X      -1.0227      Y       1.8746      Z      -0.0712
       Tot       2.1366
    Quadrupole Moments (Debye-Ang)
        XX     -56.4523     XY       1.0024     YY     -63.5909
        XZ       0.2713     YZ      -1.7490     ZZ     -66.7410

 Total job time:  25.07s(wall), 24.75s(cpu)
        *  Thank you very much for using Q-Chem.  Have a nice day.  *
