 Q-Chem 5.2, Q-Chem, Inc., Pleasanton, CA (2019)
 Q-Chem 5.2.1 for Intel X86 EM64T Linux

User input:
--------------------------------------------------------------
$molecule
0 1
C         1.29661971600000    4.78597429750000   -0.67076778040000
O         2.57764520700000    4.22625672240000   -0.52819704560000
C         2.68623049490000    2.87851733100000   -0.35178706120000
C         4.00040940940000    2.40417481470000   -0.20947222670000
C         4.25976561140000    1.06982154150000   -0.00318277730000
C         1.60827936320000    2.00636484050000   -0.30760838530000
C         1.87915500610000    0.65628297310000   -0.12647344060000
C         3.19452133040000    0.17769132860000    0.04567883180000
C         3.09210854780000   -1.23753953090000    0.26440745330000
C         4.02759653200000   -2.24211317150000    0.47295287080000
C         3.58158274260000   -3.53971896980000    0.62817598500000
C         2.22445040450000   -3.84360210950000    0.56072420100000
C         1.27450740590000   -2.86057699350000    0.35328143170000
C         1.71484055490000   -1.55241260630000    0.22406803680000
N         0.99089603000000   -0.39645540170000   -0.01656295410000
C        -0.39766823520000   -0.31304975720000   -0.13543959750000
C        -0.97559012980000    0.35676946170000   -1.21297971500000
C        -2.34675276100000    0.43756558990000   -1.32335703330000
C        -3.18564521040000   -0.15078954490000   -0.37255765240000
C        -4.62109873110000   -0.03076063120000   -0.55835123200000
C        -5.59545118540000   -0.51283974350000    0.19989723370000
F        -5.48921156160000   -1.22232844450000    1.31721705610000
F        -6.88633178660000   -0.33650535520000   -0.07708210590000
C        -2.59787614250000   -0.82266490560000    0.70215485430000
C        -1.22607595690000   -0.89917804980000    0.82025458790000
H         1.45419419490000    5.85607455970000   -0.79600085920000
H         0.67959063500000    4.61365353810000    0.21749840300000
H         0.78027202820000    4.39190125310000   -1.55268403640000
H         4.79845044020000    3.12757030960000   -0.25531059690000
H         5.27275653720000    0.72051561930000    0.12310974890000
H         0.59081235060000    2.35229482630000   -0.39170803320000
H         5.08092240320000   -2.00868465240000    0.50708223300000
H         4.29267329520000   -4.33518360180000    0.79438089290000
H         1.90600675020000   -4.86982138720000    0.66901572950000
H         0.22670073200000   -3.11076292430000    0.28275572350000
H        -0.34145913460000    0.79191295690000   -1.97056874130000
H        -2.78185896690000    0.95488925200000   -2.16598842370000
H        -4.94985545890000    0.52032445640000   -1.42785364280000
H        -3.21183355120000   -1.28220933820000    1.45893779270000
H        -0.78435072770000   -1.40104707080000    1.66759721600000
$end

$rem
BASIS = 6-31G*
GUI = 2
METHOD = B3LYP
PRINT_ORBITALS false
MOLDEN_FORMAT false
--------------------------------------------------------------

             Standard Nuclear Orientation (Angstroms)
    I     Atom           X                Y                Z
 ----------------------------------------------------------------
    1      C      -1.8344184121    -4.6047134970     0.2344221698
    2      O      -3.0308534878    -3.8680957322     0.2583776530
    3      C      -2.9632170756    -2.5085724368     0.1781626945
    4      C      -4.2034639510    -1.8508833516     0.2175747427
    5      C      -4.2865868943    -0.4794087812     0.1678986590
    6      C      -1.7819120746    -1.7896390107     0.0675571445
    7      C      -1.8748366985    -0.4060661642    -0.0098749129
    8      C      -3.1152516299     0.2614917192     0.0580382987
    9      C      -2.8290781333     1.6675032719     0.0085891614
   10      C      -3.6248742325     2.8052355755     0.0170113394
   11      C      -3.0140211017     4.0406022191    -0.0697701772
   12      C      -1.6303687690     4.1492991378    -0.1810989296
   13      C      -0.8174621571     3.0308990092    -0.1923494551
   14      C      -1.4236283323     1.7893804495    -0.0779917649
   15      N      -0.8574919985     0.5254399740    -0.0914131582
   16      C       0.5069395631     0.2432957171    -0.1804075878
   17      C       0.9774642159    -0.6848502210    -1.1082523355
   18      C       2.3251061937    -0.9606248173    -1.1895394784
   19      C       3.2471531313    -0.3178377972    -0.3585304167
   20      C       4.6523493363    -0.6541930947    -0.5059812353
   21      C       5.6921139854    -0.1683361381     0.1569940310
   22      F       5.6950310906     0.7451803299     1.1206038137
   23      F       6.9453134257    -0.5579688484    -0.0707374151
   24      C       2.7670827271     0.6130492631     0.5660655153
   25      C       1.4183805801     0.8861782899     0.6557349687
   26      H      -2.1296443844    -5.6500236551     0.3105530448
   27      H      -1.1866254498    -4.3502435034     1.0800257672
   28      H      -1.2856827773    -4.4522346545    -0.7011654462
   29      H      -5.0881762817    -2.4612729075     0.3011233334
   30      H      -5.2444212153     0.0147517253     0.2176364953
   31      H      -0.8185487153    -2.2732002575     0.0586697269
   32      H      -4.6987567509     2.7198292020     0.0850640081
   33      H      -3.6147287664     4.9378894977    -0.0617909915
   34      H      -1.1815001598     5.1280042776    -0.2642412360
   35      H       0.2525251887     3.1265319446    -0.2993406837
   36      H       0.2810988539    -1.1686556475    -1.7763995537
   37      H       2.6771974610    -1.6779623335    -1.9164696464
   38      H       4.8942376270    -1.3957483111    -1.2539091182
   39      H       3.4465547205     1.1230643407     1.2286722101
   40      H       1.0578202678     1.5901969337     1.3901307966
 ----------------------------------------------------------------

    9   -1138.9089279436      4.39e-06  Convergence criterion met
 Total energy in the final basis set =    -1138.9089279436

                    Orbital Energies (a.u.)
 --------------------------------------------------------------

 Alpha MOs
 -- Occupied --
-24.7502 -24.7394 -19.1758 -14.3825 -10.3627 -10.2439 -10.2391 -10.2386
-10.2222 -10.2175 -10.2143 -10.2093 -10.2019 -10.2000 -10.1994 -10.1986
-10.1859 -10.1831 -10.1821 -10.1813 -10.1805 -10.1795 -10.1778 -10.1746
-10.1739  -1.2910  -1.2299  -1.0659  -1.0013  -0.8823  -0.8509  -0.8460
 -0.8142  -0.7829  -0.7667  -0.7529  -0.7519  -0.7333  -0.7172  -0.6913
 -0.6583  -0.6338  -0.6322  -0.6118  -0.6068  -0.5836  -0.5772  -0.5735
 -0.5467  -0.5399  -0.5277  -0.5245  -0.5084  -0.4893  -0.4870  -0.4704
 -0.4669  -0.4645  -0.4571  -0.4490  -0.4463  -0.4425  -0.4387  -0.4362
 -0.4332  -0.4318  -0.4185  -0.4140  -0.4080  -0.3891  -0.3852  -0.3826
 -0.3681  -0.3620  -0.3590  -0.3467  -0.3383  -0.3337  -0.3280  -0.3182
 -0.2988  -0.2675  -0.2611  -0.2513  -0.2351  -0.1967  -0.1940

          Ground-State Mulliken Net Atomic Charges

     Atom                 Charge (a.u.)
  ----------------------------------------
      1 C                    -0.210812
      2 O                    -0.507998
      3 C                     0.381883
      4 C                    -0.192850
      5 C                    -0.192807
      6 C                    -0.267803
      7 C                     0.314671
      8 C                     0.057776
      9 C                     0.061473
     10 C                    -0.198098
     11 C                    -0.144759
     12 C                    -0.140693
     13 C                    -0.179030
     14 C                     0.310637
     15 N                    -0.738443
     16 C                     0.289189
     17 C                    -0.162455
     18 C                    -0.209293
     19 C                     0.204325
     20 C                    -0.300126
     21 C                     0.545025
     22 F                    -0.233732
     23 F                    -0.246648
     24 C                    -0.208883
     25 C                    -0.160407
     26 H                     0.168817
     27 H                     0.151485
     28 H                     0.146299
     29 H                     0.131187
     30 H                     0.132119
     31 H                     0.141602
     32 H                     0.126741
     33 H                     0.120460
     34 H                     0.123133
     35 H                     0.137245
     36 H                     0.153951
     37 H                     0.134143
     38 H                     0.160929
     39 H                     0.145787
     40 H                     0.155959
  ----------------------------------------
  Sum of atomic charges =     0.000000

                    Cartesian Multipole Moments
 -----------------------------------------------------------------
    Charge (ESU x 10^10)
                 0.0000
    Dipole Moment (Debye)
         X       1.4954      Y      -1.3068      Z      -0.5350
       Tot       2.0567
    Quadrupole Moments (Debye-Ang)
        XX    -144.3992     XY      -4.8130     YY    -129.3213
        XZ      -2.3881     YZ       3.2458     ZZ    -142.1491

 Total job time:  126.89s(wall), 123.44s(cpu)
        *  Thank you very much for using Q-Chem.  Have a nice day.  *
