 Q-Chem 5.2, Q-Chem, Inc., Pleasanton, CA (2019)
 Q-Chem 5.2.1 for Intel X86 EM64T Linux

User input:
--------------------------------------------------------------
$molecule
0 1
C        -3.34510060410000    1.69776702300000   -0.75762112960000
C        -2.38887358840000    1.53074717650000    0.14033911150000
C        -1.19315420460000    0.69148083550000   -0.04847822130000
C         0.04743864350000    1.31506066100000   -0.02412421580000
C         1.24184729830000    0.62961118120000   -0.19713808780000
C         2.52119814510000    1.42050759790000   -0.18238273210000
C         2.89430396460000    1.85446058700000    1.23648130720000
C         1.18855152150000   -0.75223490310000   -0.40297218780000
C         2.35866472180000   -1.61140801420000   -0.61259844430000
C         3.48129444210000   -1.60831260560000    0.09075163790000
C        -0.06024734570000   -1.37335275260000   -0.43684495620000
C        -1.24960240850000   -0.69065539510000   -0.25420487250000
C        -2.54285862980000   -1.45575964350000   -0.19385582420000
C        -2.95163502360000   -1.68709795590000    1.26185148670000
H        -4.18531526570000    2.34824198330000   -0.58051030090000
H        -3.31884659120000    1.20241911450000   -1.71462742370000
H        -2.42335764970000    2.07933043370000    1.07512310610000
H         0.08005711320000    2.38725039120000    0.11791903340000
H         2.38839290000000    2.31569768560000   -0.79619116420000
H         3.33194038550000    0.83324011130000   -0.61415690020000
H         2.11860947320000    2.49094336270000    1.65606586020000
H         3.83057320310000    2.40847114840000    1.23022529570000
H         3.00629966720000    0.99085949190000    1.88820965370000
H         2.23251979990000   -2.34875893440000   -1.39784423670000
H         3.64449415900000   -0.93914716210000    0.91720772570000
H         4.27874160850000   -2.30098406440000   -0.12210613640000
H        -0.09458925620000   -2.44314769680000   -0.59636668890000
H        -2.41785460030000   -2.41973242330000   -0.69109098120000
H        -3.33765491810000   -0.91083413430000   -0.70189802990000
H        -2.16966928660000   -2.22399668400000    1.79479196360000
H        -3.86975815630000   -2.26814805930000    1.31232235040000
H        -3.11635387520000   -0.73472813360000    1.76083173270000
$end

$rem
BASIS = 6-31G*
GUI = 2
METHOD = B3LYP
PRINT_ORBITALS false
MOLDEN_FORMAT false
--------------------------------------------------------------

             Standard Nuclear Orientation (Angstroms)
    I     Atom           X                Y                Z
 ----------------------------------------------------------------
    1      C      -3.3206393524    -1.7278736190     0.8120617001
    2      C      -2.3534929394    -1.5847294415    -0.0782954695
    3      C      -1.1791441024    -0.7109614706     0.0866262182
    4      C       0.0746448434    -1.3074929658     0.1126835730
    5      C       1.2512107250    -0.5881293196     0.2695130815
    6      C       2.5471386304    -1.3503975028     0.3141396735
    7      C       2.9527301091    -1.8461131516    -1.0752702225
    8      C       1.1651925823     0.8007393567     0.4049804073
    9      C       2.3131784834     1.6948561723     0.5892899151
   10      C       3.4470700030     1.6814911406    -0.0956332969
   11      C      -0.0969041457     1.3951055291     0.3884256340
   12      C      -1.2683179217     0.6781221108     0.2219231092
   13      C      -2.5763595479     1.4105914682     0.1033738911
   14      C      -2.9658886153     1.5601182165    -1.3682266617
   15      H      -4.1438144991    -2.4047140099     0.6548473235
   16      H      -3.3207007425    -1.1850444161     1.7433276789
   17      H      -2.3608946253    -2.1797902360    -0.9848282726
   18      H       0.1323647162    -2.3844447072     0.0250797506
   19      H       2.4232675982    -2.2166327725     0.9699260278
   20      H       3.3379935848    -0.7246438011     0.7283808584
   21      H       2.1977543446    -2.5196301371    -1.4743315339
   22      H       3.9003231254    -2.3783605054    -1.0268227598
   23      H       3.0570954842    -1.0137661206    -1.7676617410
   24      H       2.1584670952     2.4674217131     1.3345527861
   25      H       3.6380545079     0.9757751215    -0.8848962586
   26      H       4.2260073316     2.4013024872     0.0945046227
   27      H      -0.1565842921     2.4704980934     0.4935773601
   28      H      -2.4800747386     2.4006403972     0.5535346208
   29      H      -3.3676761642     0.8742499319     0.6257794831
   30      H      -2.1868167389     2.0869227861    -1.9152917098
   31      H      -3.8951869869     2.1175639618    -1.4619037406
   32      H      -3.1020915116     0.5806930736    -1.8213238090
 ----------------------------------------------------------------

    8    -544.2922058030      8.38e-06  Convergence criterion met
 Total energy in the final basis set =     -544.2922058030

                    Orbital Energies (a.u.)
 --------------------------------------------------------------

 Alpha MOs
 -- Occupied --
-10.1879 -10.1866 -10.1859 -10.1858 -10.1840 -10.1833 -10.1788 -10.1765
-10.1764 -10.1763 -10.1759 -10.1758 -10.1710 -10.1675  -0.8666  -0.8121
 -0.7861  -0.7691  -0.7544  -0.7179  -0.7028  -0.6429  -0.6177  -0.6024
 -0.5886  -0.5665  -0.5266  -0.4897  -0.4852  -0.4652  -0.4454  -0.4393
 -0.4330  -0.4285  -0.4205  -0.4117  -0.4002  -0.3882  -0.3756  -0.3716
 -0.3562  -0.3506  -0.3467  -0.3395  -0.3320  -0.3236  -0.3164  -0.2819
 -0.2628  -0.2327  -0.2154

          Ground-State Mulliken Net Atomic Charges

     Atom                 Charge (a.u.)
  ----------------------------------------
      1 C                    -0.319067
      2 C                    -0.152915
      3 C                     0.083598
      4 C                    -0.241293
      5 C                     0.138942
      6 C                    -0.347287
      7 C                    -0.442787
      8 C                     0.099484
      9 C                    -0.140352
     10 C                    -0.338509
     11 C                    -0.261794
     12 C                     0.141953
     13 C                    -0.337267
     14 C                    -0.437329
     15 H                     0.141696
     16 H                     0.147048
     17 H                     0.140713
     18 H                     0.118630
     19 H                     0.142919
     20 H                     0.152375
     21 H                     0.147840
     22 H                     0.143341
     23 H                     0.151341
     24 H                     0.135472
     25 H                     0.150233
     26 H                     0.140729
     27 H                     0.117424
     28 H                     0.137044
     29 H                     0.147443
     30 H                     0.148368
     31 H                     0.140997
     32 H                     0.151010
  ----------------------------------------
  Sum of atomic charges =     0.000000

                    Cartesian Multipole Moments
 -----------------------------------------------------------------
    Charge (ESU x 10^10)
                 0.0000
    Dipole Moment (Debye)
         X      -0.1212      Y      -0.1073      Z      -0.0355
       Tot       0.1657
    Quadrupole Moments (Debye-Ang)
        XX     -80.6410     XY       1.1630     YY     -81.4316
        XZ      -0.7873     YZ       2.2394     ZZ     -86.7300

 Total job time:  45.76s(wall), 44.33s(cpu)
        *  Thank you very much for using Q-Chem.  Have a nice day.  *
