 Q-Chem 5.2, Q-Chem, Inc., Pleasanton, CA (2019)
 Q-Chem 5.2.1 for Intel X86 EM64T Linux

User input:
--------------------------------------------------------------
$molecule
0 1
C         4.06718639140000   -3.03618112140000   -0.59513674300000
C         4.25153301010000   -1.73378291750000   -0.42060681420000
C         3.22811359270000   -0.73994375360000   -0.10897532370000
C         3.54738006170000    0.60919156670000   -0.24044522290000
C         2.60618866450000    1.58997445800000    0.05145011300000
C         2.88818216520000    3.01673504360000   -0.07069947610000
C         3.99019540480000    3.57184714090000   -0.55947953780000
C         1.33505848700000    1.20416860530000    0.47428079600000
C         0.98248335430000   -0.13922098390000    0.61461480160000
N        -0.25405948380000   -0.54323294890000    1.10855476710000
C        -0.93962723570000   -1.66018454160000    0.49684560610000
C        -1.78179948560000   -1.20373647080000   -0.70098526700000
C        -2.80032504830000   -0.14342030860000   -0.25913126780000
C        -2.07360229800000    1.00458708370000    0.45503671410000
C        -1.20740681150000    0.43228345140000    1.58287302290000
O        -3.75820091920000   -0.75460931820000    0.59470694100000
C        -5.04342943500000   -0.38741674630000    0.15166282950000
C        -4.82471883400000   -0.11440442430000   -1.33744933220000
O        -3.50767247130000    0.38473917120000   -1.37205320760000
C         1.95738768980000   -1.09799892760000    0.32662149530000
H         4.88779286550000   -3.69209816490000   -0.83118680790000
H         3.10014986140000   -3.50354057750000   -0.51965921840000
H         5.24971457940000   -1.32812332420000   -0.53499549910000
H         4.53687962470000    0.88600386350000   -0.56872018670000
H         2.09049671780000    3.66354412560000    0.27620204990000
H         4.81892288830000    2.99450026940000   -0.93139298270000
H         4.10375489980000    4.64144639470000   -0.60902588360000
H         0.62013286150000    1.98373294340000    0.68537028130000
H        -1.60309885500000   -2.10425703750000    1.24527577010000
H        -0.22720412550000   -2.41479655330000    0.16975956640000
H        -2.31392340340000   -2.05259761450000   -1.13172977160000
H        -1.14152291780000   -0.76186824710000   -1.46604554990000
H        -2.81067482820000    1.70093494480000    0.85694468330000
H        -1.46696271720000    1.52471025240000   -0.28623688890000
H        -1.86762668530000   -0.08163672950000    2.29019967150000
H        -0.68800295850000    1.22578768420000    2.12066213130000
H        -5.38574597140000    0.51857219240000    0.67082155680000
H        -5.72725039680000   -1.21131238610000    0.35529327980000
H        -5.49129487500000    0.64172211080000   -1.75150808770000
H        -4.90090007500000   -1.04082156020000   -1.92316872360000
H         1.73848159890000   -2.14180450350000    0.47992385820000
$end

$rem
BASIS = 6-31G*
GUI = 2
METHOD = B3LYP
PRINT_ORBITALS false
MOLDEN_FORMAT false
--------------------------------------------------------------

             Standard Nuclear Orientation (Angstroms)
    I     Atom           X                Y                Z
 ----------------------------------------------------------------
    1      C       3.8060353912    -3.3735827183    -0.5496538172
    2      C       4.0993261901    -2.0890359754    -0.3927920116
    3      C       3.1633757632    -1.0086395134    -0.0945336392
    4      C       3.5946539364     0.3070175182    -0.2442909023
    5      C       2.7395199171     1.3672325129     0.0344010192
    6      C       3.1401875730     2.7634897004    -0.1070836836
    7      C       4.2843181000     3.2174405603    -0.6034530254
    8      C       1.4410066808     1.0952894925     0.4625531408
    9      C       0.9770311122    -0.2117254917     0.6210995014
   10      N      -0.2884574942    -0.5037550194     1.1205971391
   11      C      -1.0661681955    -1.5673228542     0.5241395745
   12      C      -1.8685217789    -1.0579424726    -0.6796702504
   13      C      -2.7938506895     0.0900345675    -0.2521018175
   14      C      -1.9723947635     1.1824702549     0.4463802979
   15      C      -1.1559197539     0.5546928851     1.5817678707
   16      O      -3.7986083067    -0.4269747485     0.6100358595
   17      C      -5.0490091381     0.0408621757     0.1621997505
   18      C      -4.8099963878     0.2744397640    -1.3304956305
   19      O      -3.4557276952     0.6606869858    -1.3719958767
   20      C       1.8676118259    -1.2527942938     0.3460077078
   21      H       4.5683630522    -4.0992284414    -0.7768907161
   22      H       2.8032599339    -3.7570078016    -0.4677517050
   23      H       5.1279065141    -1.7702276035    -0.5127697644
   24      H       4.6034958573     0.4952913561    -0.5763900219
   25      H       2.4000729959     3.4796297394     0.2311153518
   26      H       5.0611674922     2.5675664897    -0.9676054339
   27      H       4.4872420503     4.2729568338    -0.6674876246
   28      H       0.7943395596     1.9349215336     0.6631463808
   29      H      -1.7636582037    -1.9439698903     1.2785846556
   30      H      -0.4200435536    -2.3834466209     0.2072228692
   31      H      -2.4705907838    -1.8648399214    -1.0988257749
   32      H      -1.1943506781    -0.6817677307    -1.4507115834
   33      H      -2.6478817648     1.9436201071     0.8389035298
   34      H      -1.3251401609     1.6397621857    -0.3019323477
   35      H      -1.8560866285     0.1076240907     2.2960584717
   36      H      -0.5710416476     1.3089455646     2.1087089977
   37      H      -5.3133829713     0.9793177991     0.6690822531
   38      H      -5.7993530100    -0.7198667452     0.3770394024
   39      H      -5.4112311376     1.0782301306    -1.7546812393
   40      H      -4.9644400005    -0.6501171145    -1.9036110164
   41      H       1.5620088630    -2.2723633963     0.5134509693
 ----------------------------------------------------------------

    8    -865.5936281785      7.21e-06  Convergence criterion met
 Total energy in the final basis set =     -865.5936281785

                    Orbital Energies (a.u.)
 --------------------------------------------------------------

 Alpha MOs
 -- Occupied --
-19.1580 -19.1540 -14.3378 -10.2861 -10.2416 -10.2398 -10.2189 -10.2120
-10.2111 -10.1866 -10.1863 -10.1839 -10.1835 -10.1795 -10.1785 -10.1746
-10.1738 -10.1736 -10.1720 -10.1699  -1.0958  -1.0010  -0.9520  -0.8555
 -0.8107  -0.7973  -0.7692  -0.7636  -0.7354  -0.7161  -0.7097  -0.6500
 -0.6471  -0.6331  -0.6155  -0.6054  -0.5793  -0.5476  -0.5319  -0.5229
 -0.5148  -0.4993  -0.4864  -0.4793  -0.4702  -0.4613  -0.4513  -0.4476
 -0.4354  -0.4303  -0.4197  -0.4184  -0.4114  -0.4010  -0.3948  -0.3900
 -0.3742  -0.3697  -0.3641  -0.3618  -0.3554  -0.3482  -0.3428  -0.3396
 -0.3338  -0.3277  -0.3086  -0.2955  -0.2721  -0.2490  -0.2410  -0.2126
 -0.1869

          Ground-State Mulliken Net Atomic Charges

     Atom                 Charge (a.u.)
  ----------------------------------------
      1 C                    -0.352107
      2 C                    -0.114400
      3 C                     0.186206
      4 C                    -0.276791
      5 C                     0.190784
      6 C                    -0.114577
      7 C                    -0.353249
      8 C                    -0.282598
      9 C                     0.358862
     10 N                    -0.470010
     11 C                    -0.174186
     12 C                    -0.275083
     13 C                     0.536300
     14 C                    -0.283176
     15 C                    -0.168839
     16 O                    -0.511041
     17 C                    -0.047419
     18 C                    -0.050510
     19 O                    -0.517096
     20 C                    -0.255397
     21 H                     0.141270
     22 H                     0.137894
     23 H                     0.125973
     24 H                     0.117444
     25 H                     0.121946
     26 H                     0.142835
     27 H                     0.140907
     28 H                     0.124692
     29 H                     0.160914
     30 H                     0.152813
     31 H                     0.135572
     32 H                     0.156912
     33 H                     0.135955
     34 H                     0.158363
     35 H                     0.160447
     36 H                     0.154762
     37 H                     0.136297
     38 H                     0.151757
     39 H                     0.151953
     40 H                     0.136410
     41 H                     0.129214
  ----------------------------------------
  Sum of atomic charges =     0.000000

                    Cartesian Multipole Moments
 -----------------------------------------------------------------
    Charge (ESU x 10^10)
                 0.0000
    Dipole Moment (Debye)
         X      -2.7540      Y      -0.0267      Z      -0.1475
       Tot       2.7581
    Quadrupole Moments (Debye-Ang)
        XX    -102.4542     XY      -0.1375     YY    -112.5328
        XZ      -1.7231     YZ       3.4535     ZZ    -124.3180

 Total job time:  86.41s(wall), 85.97s(cpu)
        *  Thank you very much for using Q-Chem.  Have a nice day.  *
