 Q-Chem 5.2, Q-Chem, Inc., Pleasanton, CA (2019)
 Q-Chem 5.2.1 for Intel X86 EM64T Linux

User input:
--------------------------------------------------------------
$molecule
0 1
C        -4.84052605510000    1.13145239110000   -1.26472301870000
C        -4.73240073360000    0.27140632380000   -0.00703349140000
C        -5.78330026680000   -0.83865027620000   -0.02129503710000
O        -3.46984227030000   -0.44778658580000   -0.00021675120000
C        -2.31422368730000    0.21086891910000    0.00991652140000
N        -1.25609248070000   -0.68765816350000    0.01042661470000
C        -1.35767329270000   -2.07134688880000    0.00762855450000
C        -0.12888069690000   -2.63289912380000    0.00403973850000
C         0.09190308630000   -0.36011233460000    0.00849397740000
C         0.82673034830000   -1.56616861280000    0.00387551880000
C         2.21332848010000   -1.53255198690000   -0.00073900760000
C         2.86411137280000   -0.30198540260000   -0.00060393220000
C         4.31857801740000   -0.30969473690000   -0.00689127540000
C         5.15790293840000    0.71512060780000   -0.00727058510000
F         4.87653193830000    2.01305753480000   -0.00148778520000
F         6.48358379460000    0.56536814780000   -0.01398312770000
C         2.10911169220000    0.88380823380000    0.00485974950000
C         0.72995844130000    0.87059974970000    0.00940714660000
O        -2.16026434530000    1.40365387350000    0.01717937970000
C        -4.86139207700000    1.11929449270000    1.25688937130000
H        -4.69435572930000    0.51839505360000   -2.15170263570000
H        -4.09045893770000    1.91737203460000   -1.25278041910000
H        -5.82578663210000    1.58641868430000   -1.31004500770000
H        -5.66065893550000   -1.45816321140000   -0.90588385090000
H        -6.77883348380000   -0.40572638790000   -0.02770901700000
H        -5.67573849560000   -1.46669531580000    0.85921552680000
H        -2.32549768330000   -2.53160036490000    0.00889112920000
H         0.09507898080000   -3.68107086270000    0.00167512360000
H         2.77881757070000   -2.45244062890000   -0.00481044250000
H         4.79153749640000   -1.28153926320000   -0.01234916060000
H         2.61288984020000    1.83558403630000    0.00532168140000
H         0.16404373070000    1.78700157550000    0.01339435390000
H        -5.84683311290000    1.57497548130000    1.28950164940000
H        -4.11041227230000    1.90439442190000    1.26549916220000
H        -4.73128287610000    0.49755273750000    2.14030099140000
$end

$rem
BASIS = 6-31G*
GUI = 2
METHOD = B3LYP
PRINT_ORBITALS false
MOLDEN_FORMAT false
--------------------------------------------------------------

             Standard Nuclear Orientation (Angstroms)
    I     Atom           X                Y                Z
 ----------------------------------------------------------------
    1      C      -4.6277231800    -1.3000866238     1.2647165248
    2      C      -4.5483382225    -0.4362421342     0.0074878279
    3      C      -5.6353513196     0.6384644084     0.0225626266
    4      O      -3.3102424921     0.3242929163     0.0008408856
    5      C      -2.1334868826    -0.2958002390    -0.0098726991
    6      N      -1.1056329600     0.6372105335    -0.0100752439
    7      C      -1.2528927362     2.0167838918    -0.0064854953
    8      C      -0.0433318259     2.6186426140    -0.0028087477
    9      C       0.2524527922     0.3543980738    -0.0085732893
   10      C       0.9470157100     1.5840809344    -0.0034160694
   11      C       2.3339682399     1.5963114819     0.0009248897
   12      C       3.0250693973     0.3879279282    -0.0000172452
   13      C       4.4784877474     0.4437041890     0.0060071471
   14      C       5.3512273224    -0.5528089675     0.0056596995
   15      F       5.1129095831    -1.8593334867    -0.0007965144
   16      F       6.6712353925    -0.3593242181     0.0122123105
   17      C       2.3096751720    -0.8221696591    -0.0060046613
   18      C       0.9308380184    -0.8545511550    -0.0102912605
   19      O      -1.9401880379    -1.4828404280    -0.0178302175
   20      C      -4.6494893088    -1.2872323957    -1.2568848028
   21      H      -4.5017168251    -0.6830228454     2.1520116257
   22      H      -3.8520913415    -2.0607780895     1.2521970346
   23      H      -5.5973982395    -1.7873951873     1.3099653712
   24      H      -5.5330749625     1.2612038707     0.9074748546
   25      H      -6.6160298370     0.1728681485     0.0289176725
   26      H      -5.5487850460     1.2702077325    -0.8576166804
   27      H      -2.2354012928     2.4447969276    -0.0073131039
   28      H       0.1458607545     3.6736427220     0.0001002951
   29      H       2.8687440985     2.5343862655     0.0054063289
   30      H       4.9190675378     1.4306473051     0.0119210646
   31      H       2.8446369788    -1.7567735856    -0.0070908891
   32      H       0.3955215398    -1.7891551427    -0.0146864459
   33      H      -5.6193368575    -1.7752181864    -1.2895705761
   34      H      -3.8729717022    -2.0470762686    -1.2660711946
   35      H      -4.5401801698    -0.6610420466    -2.1399728299
 ----------------------------------------------------------------

    9    -985.5169603562      6.16e-06  Convergence criterion met
 Total energy in the final basis set =     -985.5169603562

                    Orbital Energies (a.u.)
 --------------------------------------------------------------

 Alpha MOs
 -- Occupied --
-24.7371 -24.7261 -19.2002 -19.1403 -14.3992 -10.3536 -10.3479 -10.2656
-10.2221 -10.2204 -10.1980 -10.1959 -10.1889 -10.1862 -10.1861 -10.1844
-10.1834 -10.1802 -10.1789 -10.1788  -1.2776  -1.2165  -1.1284  -1.0375
 -0.9958  -0.8612  -0.8296  -0.8026  -0.7901  -0.7411  -0.7245  -0.7059
 -0.7019  -0.6738  -0.6341  -0.6184  -0.6119  -0.5908  -0.5654  -0.5517
 -0.5232  -0.5162  -0.5113  -0.4962  -0.4834  -0.4804  -0.4715  -0.4606
 -0.4562  -0.4480  -0.4376  -0.4335  -0.4295  -0.4242  -0.4194  -0.4165
 -0.4065  -0.4016  -0.3909  -0.3903  -0.3774  -0.3718  -0.3655  -0.3614
 -0.3485  -0.3456  -0.3387  -0.3086  -0.2852  -0.2844  -0.2795  -0.2159
 -0.2072

          Ground-State Mulliken Net Atomic Charges

     Atom                 Charge (a.u.)
  ----------------------------------------
      1 C                    -0.469083
      2 C                     0.302642
      3 C                    -0.452515
      4 O                    -0.511508
      5 C                     0.827693
      6 N                    -0.613643
      7 C                     0.045433
      8 C                    -0.224399
      9 C                     0.306736
     10 C                     0.107578
     11 C                    -0.286408
     12 C                     0.199720
     13 C                    -0.292842
     14 C                     0.534626
     15 F                    -0.236043
     16 F                    -0.252901
     17 C                    -0.222632
     18 C                    -0.143042
     19 O                    -0.494041
     20 C                    -0.468919
     21 H                     0.150303
     22 H                     0.190326
     23 H                     0.148148
     24 H                     0.155445
     25 H                     0.152794
     26 H                     0.155353
     27 H                     0.174188
     28 H                     0.137903
     29 H                     0.125845
     30 H                     0.155140
     31 H                     0.137743
     32 H                     0.171734
     33 H                     0.148139
     34 H                     0.190248
     35 H                     0.150240
  ----------------------------------------
  Sum of atomic charges =     0.000000

                    Cartesian Multipole Moments
 -----------------------------------------------------------------
    Charge (ESU x 10^10)
                 0.0000
    Dipole Moment (Debye)
         X      -3.5833      Y       1.8801      Z       0.0224
       Tot       4.0466
    Quadrupole Moments (Debye-Ang)
        XX    -103.4499     XY       3.5390     YY    -109.8001
        XZ      -0.0441     YZ      -0.0238     ZZ    -115.4911

 Total job time:  75.76s(wall), 75.56s(cpu)
        *  Thank you very much for using Q-Chem.  Have a nice day.  *
