 Q-Chem 5.2, Q-Chem, Inc., Pleasanton, CA (2019)
 Q-Chem 5.2.1 for Intel X86 EM64T Linux

User input:
--------------------------------------------------------------
$molecule
0 1
C         3.69477882600000   -1.27209714130000   -0.15461248370000
C         2.44994966900000   -1.67941172270000    0.06442464660000
C         1.23375999970000   -0.87359587580000    0.04646355460000
C         0.00198792700000   -1.52445531810000    0.09211350630000
C        -1.23138876460000   -0.87547044950000    0.06868522720000
C        -2.44584770110000   -1.68311084050000    0.10858835500000
C        -3.69495423800000   -1.27776941530000   -0.08866151770000
C        -1.20713980740000    0.52073543870000    0.01576050750000
F        -2.33448983550000    1.24856759130000    0.01169637290000
C        -0.00107369560000    1.20756114640000   -0.01647181450000
F        -0.00245787880000    2.54828701430000   -0.05676279770000
C         1.20642365420000    0.52257069980000   -0.00599346690000
F         2.33239092700000    1.25214521210000   -0.03039886290000
H         4.51205139470000   -1.97228681860000   -0.12023425960000
H         3.95560754220000   -0.25365727770000   -0.37707377420000
H         2.26886728900000   -2.72763130550000    0.26714304230000
H         0.00322278440000   -2.60362807360000    0.13784146140000
H        -2.25963036270000   -2.73095027820000    0.30861438550000
H        -3.96118899640000   -0.25984260360000   -0.30705179990000
H        -4.51044688180000   -1.97915010300000   -0.03948185240000
$end

$rem
BASIS = 6-31G*
GUI = 2
METHOD = B3LYP
PRINT_ORBITALS false
MOLDEN_FORMAT false
--------------------------------------------------------------

             Standard Nuclear Orientation (Angstroms)
    I     Atom           X                Y                Z
 ----------------------------------------------------------------
    1      C       3.6950443237     1.1795209190     0.1465940584
    2      C       2.4479900080     1.5902636650    -0.0524737520
    3      C       1.2326258149     0.7830853904    -0.0409758070
    4      C      -0.0000026227     1.4335982974    -0.0615783146
    5      C      -1.2326238144     0.7830805531    -0.0410851572
    6      C      -2.4480079437     1.5902309439    -0.0527227848
    7      C      -3.6949851992     1.1795450479     0.1469297707
    8      C      -1.2068353772    -0.6139170349    -0.0184441427
    9      F      -2.3335477061    -1.3427457443    -0.0199560568
   10      C      -0.0000047569    -1.3001237430    -0.0117996671
   11      F      -0.0000040905    -2.6414068557    -0.0003653445
   12      C       1.2068268145    -0.6139121555    -0.0183397693
   13      F       2.3335242674    -1.3427659320    -0.0197232508
   14      H       4.5114409501     1.8810693315     0.1199806897
   15      H       3.9586352648     0.1567800993     0.3447390359
   16      H       2.2642965275     2.6424287488    -0.2309540360
   17      H      -0.0000017291     2.5135058108    -0.0840765262
   18      H      -2.2643921488     2.6423092426    -0.2318073752
   19      H      -3.9584732834     0.1569007910     0.3457337174
   20      H      -4.5114212994     1.8810414637     0.1201597572
 ----------------------------------------------------------------

    9    -684.7309378008      2.93e-06  Convergence criterion met
 Total energy in the final basis set =     -684.7309378008

                    Orbital Energies (a.u.)
 --------------------------------------------------------------

 Alpha MOs
 -- Occupied --
-24.7275 -24.7275 -24.7233 -10.2913 -10.2911 -10.2901 -10.2186 -10.2186
-10.2096 -10.2030 -10.2030 -10.1871 -10.1871  -1.2483  -1.2399  -1.2275
 -0.8930  -0.8188  -0.7996  -0.7504  -0.7412  -0.6609  -0.6437  -0.6075
 -0.5866  -0.5672  -0.5454  -0.5429  -0.5025  -0.4943  -0.4785  -0.4749
 -0.4702  -0.4518  -0.4501  -0.4377  -0.4261  -0.4005  -0.3999  -0.3906
 -0.3795  -0.3578  -0.3489  -0.3243  -0.2864  -0.2433  -0.2286

          Ground-State Mulliken Net Atomic Charges

     Atom                 Charge (a.u.)
  ----------------------------------------
      1 C                    -0.354194
      2 C                    -0.111275
      3 C                     0.136433
      4 C                    -0.311888
      5 C                     0.136411
      6 C                    -0.111287
      7 C                    -0.354170
      8 C                     0.245161
      9 F                    -0.272788
     10 C                     0.267005
     11 F                    -0.274091
     12 C                     0.245159
     13 F                    -0.272789
     14 H                     0.145271
     15 H                     0.164056
     16 H                     0.134707
     17 H                     0.144244
     18 H                     0.134712
     19 H                     0.164050
     20 H                     0.145273
  ----------------------------------------
  Sum of atomic charges =     0.000000

                    Cartesian Multipole Moments
 -----------------------------------------------------------------
    Charge (ESU x 10^10)
                 0.0000
    Dipole Moment (Debye)
         X      -0.0001      Y       2.4195      Z       0.0242
       Tot       2.4196
    Quadrupole Moments (Debye-Ang)
        XX     -68.0354     XY      -0.0004     YY     -69.9125
        XZ      -0.0010     YZ      -0.8861     ZZ     -74.0483

 Total job time:  29.23s(wall), 28.52s(cpu)
        *  Thank you very much for using Q-Chem.  Have a nice day.  *
