 Q-Chem 5.2, Q-Chem, Inc., Pleasanton, CA (2019)
 Q-Chem 5.2.1 for Intel X86 EM64T Linux

User input:
--------------------------------------------------------------
$molecule
0 1
C        -3.95964184810000   -1.62394824870000    0.43902700960000
C        -3.57342219120000   -0.39093088560000    0.13236974460000
C        -2.20006069980000    0.07960186970000    0.04561969560000
C        -1.93767019940000    1.43044816570000   -0.21919642870000
N        -0.73782047880000    1.95597902160000   -0.26195863950000
C         0.33993077450000    1.18993370510000   -0.08758975590000
C         1.62271112800000    1.87923140540000   -0.06398138750000
C         1.75705856400000    3.15241081910000   -0.41966221810000
C         0.20023972840000   -0.19960732920000    0.10594500290000
C         1.31434226180000   -1.17392652910000    0.22839384000000
O         1.24554536520000   -2.18438291520000    0.88470686940000
O         2.38929495690000   -0.84966813660000   -0.50333228340000
C         3.46842273070000   -1.77143666880000   -0.46102331430000
C        -1.08037002500000   -0.73393894840000    0.19720400670000
H        -5.00206054200000   -1.88805509130000    0.48380990430000
H        -3.26199264150000   -2.41322632020000    0.66052737300000
H        -4.32049204240000    0.36624914410000   -0.07239995900000
H        -2.75306592590000    2.12360370690000   -0.39079271040000
H         2.47527408580000    1.30444733360000    0.26271074150000
H         0.90622931940000    3.71918121290000   -0.75611961040000
H         2.70870035650000    3.65398475380000   -0.38479171850000
H         4.23723470280000   -1.36778484960000   -1.11470532590000
H         3.14228693350000   -2.75303215860000   -0.81098503380000
H         3.84319294490000   -1.87166748810000    0.55998677480000
H        -1.17640231930000   -1.79450531910000    0.37540865600000
$end

$rem
BASIS = 6-31G*
GUI = 2
METHOD = B3LYP
PRINT_ORBITALS false
MOLDEN_FORMAT false
--------------------------------------------------------------

             Standard Nuclear Orientation (Angstroms)
    I     Atom           X                Y                Z
 ----------------------------------------------------------------
    1      C       4.0021586994    -1.5855500575     0.0270013677
    2      C       3.5826917280    -0.3314839744     0.1490744548
    3      C       2.2016294507     0.1196690627     0.0844497363
    4      C       1.9072812033     1.4877513546     0.1584228494
    5      N       0.7017240169     1.9912852475     0.0548075599
    6      C      -0.3533306922     1.1888045705    -0.0923726779
    7      C      -1.6388579759     1.8448630121    -0.2878746832
    8      C      -1.8108271762     3.1497653137    -0.1056646843
    9      C      -0.1858323252    -0.2110859592    -0.0990344563
   10      C      -1.2784506101    -1.2143482840    -0.1709098141
   11      O      -1.1542078459    -2.2976069866    -0.6882261898
   12      O      -2.4042097291    -0.8216703394     0.4411035512
   13      C      -3.4679650137    -1.7620846045     0.4442232168
   14      C       1.1036930098    -0.7278745019    -0.0369551697
   15      H       5.0479858338    -1.8330578907     0.0851403628
   16      H       3.3297626239    -2.4096632869    -0.1387019916
   17      H       4.3058764140     0.4596447807     0.3055506325
   18      H       2.7015789805     2.2125296405     0.2946856709
   19      H      -2.4609348954     1.2173375192    -0.5950706589
   20      H      -0.9910593257     3.7705328724     0.2120946096
   21      H      -2.7632183413     3.6245832788    -0.2666411845
   22      H      -4.2838471316    -1.2945427786     0.9892441545
   23      H      -3.1559045009    -2.6855883150     0.9362868326
   24      H      -3.7711618703    -1.9967426252    -0.5785024611
   25      H       1.2230529079    -1.8003669125    -0.0729186133
 ----------------------------------------------------------------

    9    -630.9568942107      5.80e-06  Convergence criterion met
 Total energy in the final basis set =     -630.9568942107

                    Orbital Energies (a.u.)
 --------------------------------------------------------------

 Alpha MOs
 -- Occupied --
-19.2003 -19.1392 -14.3297 -10.3207 -10.2446 -10.2378 -10.2280 -10.2127
-10.2112 -10.2077 -10.2001 -10.1890 -10.1859 -10.1809  -1.1168  -1.0236
 -0.9578  -0.8346  -0.8150  -0.7790  -0.7442  -0.7279  -0.6587  -0.6517
 -0.5943  -0.5758  -0.5688  -0.5264  -0.5147  -0.5001  -0.4898  -0.4758
 -0.4617  -0.4450  -0.4310  -0.4226  -0.4183  -0.4063  -0.4003  -0.3949
 -0.3677  -0.3654  -0.3496  -0.3355  -0.3081  -0.2970  -0.2813  -0.2733
 -0.2548  -0.2235

          Ground-State Mulliken Net Atomic Charges

     Atom                 Charge (a.u.)
  ----------------------------------------
      1 C                    -0.348917
      2 C                    -0.115932
      3 C                     0.144553
      4 C                    -0.007986
      5 N                    -0.493683
      6 C                     0.267702
      7 C                    -0.087600
      8 C                    -0.326591
      9 C                     0.040996
     10 C                     0.541109
     11 O                    -0.480659
     12 O                    -0.442333
     13 C                    -0.221368
     14 C                    -0.181705
     15 H                     0.150526
     16 H                     0.151979
     17 H                     0.133998
     18 H                     0.143319
     19 H                     0.140184
     20 H                     0.171568
     21 H                     0.142424
     22 H                     0.168539
     23 H                     0.172562
     24 H                     0.171009
     25 H                     0.166307
  ----------------------------------------
  Sum of atomic charges =     0.000000

                    Cartesian Multipole Moments
 -----------------------------------------------------------------
    Charge (ESU x 10^10)
                 0.0000
    Dipole Moment (Debye)
         X      -0.4536      Y      -0.2788      Z       0.8927
       Tot       1.0394
    Quadrupole Moments (Debye-Ang)
        XX     -63.1007     XY       0.6026     YY     -82.9276
        XZ      -0.0907     YZ      -2.8630     ZZ     -83.6816

 Total job time:  40.25s(wall), 39.87s(cpu)
        *  Thank you very much for using Q-Chem.  Have a nice day.  *
