 Q-Chem 5.2, Q-Chem, Inc., Pleasanton, CA (2019)
 Q-Chem 5.2.1 for Intel X86 EM64T Linux

User input:
--------------------------------------------------------------
$molecule
0 1
C        -3.55876407630000    1.12804869090000   -0.31555354850000
C        -2.34819576800000    1.34283076910000    0.18368849880000
C        -1.16906344650000    0.48876314300000    0.09847067610000
N        -0.01947463080000    1.15804222450000    0.21994104170000
C         1.14286457120000    0.53230639720000    0.14428217430000
C         2.32394953290000    1.38290087340000    0.22603985090000
C         3.50574779520000    1.14651263340000   -0.33149727700000
C         1.15787687630000   -0.88080637780000    0.03640480910000
N         2.29927939530000   -1.62901967760000    0.01355660770000
N         0.01540095660000   -1.55627191500000   -0.04513479850000
C        -1.14298812170000   -0.90855345290000   -0.05010232340000
C        -2.35218309500000   -1.78112310170000   -0.14764577120000
H        -4.33829047420000    1.86239282860000   -0.19784309010000
H        -3.82283716250000    0.25047647500000   -0.87656354850000
H        -2.13753174350000    2.28087498780000    0.68192888010000
H         2.14856100050000    2.30988253180000    0.75616566090000
H         3.69967326960000    0.27948046970000   -0.94012557020000
H         4.31497965670000    1.85101157740000   -0.23631252440000
H         3.11750913370000   -1.23730729770000    0.45055586190000
H         2.14884571660000   -2.61825407320000    0.13922099080000
H        -2.06128832230000   -2.80529107870000    0.07241722970000
H        -2.75822747050000   -1.75214751980000   -1.15791611440000
H        -3.12153437200000   -1.45538901700000    0.54880165060000
$end

$rem
BASIS = 6-31G*
GUI = 2
METHOD = B3LYP
PRINT_ORBITALS false
MOLDEN_FORMAT false
--------------------------------------------------------------

             Standard Nuclear Orientation (Angstroms)
    I     Atom           X                Y                Z
 ----------------------------------------------------------------
    1      C       3.5251684538     1.1897721454     0.3013194454
    2      C       2.3032340811     1.3996280442    -0.1716356080
    3      C       1.1417393431     0.5204171922    -0.1011737734
    4      N      -0.0219051577     1.1714790081    -0.1805083274
    5      C      -1.1710302833     0.5210787114    -0.1112774815
    6      C      -2.3689403981     1.3512108673    -0.1436646369
    7      C      -3.5373652957     1.0714979079     0.4219483939
    8      C      -1.1579404486    -0.8950976808    -0.0562893686
    9      N      -2.2846590406    -1.6654978951    -0.0447300878
   10      N      -0.0019072553    -1.5509907346    -0.0169805325
   11      C       1.1441019640    -0.8817054062    -0.0047675232
   12      C       2.3707684908    -1.7338395418     0.0421541841
   13      H       4.2889128267     1.9428745257     0.1997822245
   14      H       3.8142369571     0.2971706194     0.8250576675
   15      H       2.0673964568     2.3513403036    -0.6311725002
   16      H      -2.2191241268     2.3004965277    -0.6411596889
   17      H      -3.7056229667     0.1788287624     1.0004044551
   18      H      -4.3610060868     1.7633283061     0.3651887926
   19      H      -3.1167192311    -1.2736248088    -0.4546302770
   20      H      -2.1177048036    -2.6462845583    -0.2096249708
   21      H       2.0957207176    -2.7545181923    -0.2118760370
   22      H       2.7917422610    -1.7346830894     1.0467128726
   23      H       3.1230527292    -1.3676344825    -0.6528316949
 ----------------------------------------------------------------

    9    -513.7988844883      2.27e-06  Convergence criterion met
 Total energy in the final basis set =     -513.7988844883

                    Orbital Energies (a.u.)
 --------------------------------------------------------------

 Alpha MOs
 -- Occupied --
-14.3511 -14.3291 -14.3262 -10.2623 -10.2293 -10.2222 -10.2140 -10.1936
-10.1848 -10.1836 -10.1775 -10.1755  -0.9891  -0.9283  -0.8890  -0.8086
 -0.7753  -0.7474  -0.7053  -0.6464  -0.6306  -0.5990  -0.5678  -0.5348
 -0.5135  -0.4874  -0.4824  -0.4554  -0.4487  -0.4323  -0.4173  -0.4052
 -0.3979  -0.3905  -0.3717  -0.3485  -0.3456  -0.3126  -0.2885  -0.2809
 -0.2600  -0.2416  -0.2018

          Ground-State Mulliken Net Atomic Charges

     Atom                 Charge (a.u.)
  ----------------------------------------
      1 C                    -0.354889
      2 C                    -0.095661
      3 C                     0.240576
      4 N                    -0.539322
      5 C                     0.274142
      6 C                    -0.097284
      7 C                    -0.372889
      8 C                     0.433311
      9 N                    -0.777478
     10 N                    -0.524134
     11 C                     0.275147
     12 C                    -0.527475
     13 H                     0.142793
     14 H                     0.144042
     15 H                     0.143387
     16 H                     0.150099
     17 H                     0.160553
     18 H                     0.148033
     19 H                     0.330881
     20 H                     0.337059
     21 H                     0.171255
     22 H                     0.168756
     23 H                     0.169100
  ----------------------------------------
  Sum of atomic charges =     0.000000

                    Cartesian Multipole Moments
 -----------------------------------------------------------------
    Charge (ESU x 10^10)
                 0.0000
    Dipole Moment (Debye)
         X      -1.1742      Y      -1.2594      Z      -0.7320
       Tot       1.8710
    Quadrupole Moments (Debye-Ang)
        XX     -58.3399     XY       1.8105     YY     -69.1265
        XZ       2.7936     YZ       0.1618     ZZ     -71.8974

 Total job time:  28.56s(wall), 28.47s(cpu)
        *  Thank you very much for using Q-Chem.  Have a nice day.  *
