 Q-Chem 5.4, Q-Chem, Inc., Pleasanton, CA (2021)
 Q-Chem 5.4.2 for Intel X86 EM64T Linux

User input:
--------------------------------------------------------------
$molecule
0 1
C           -1.33269414490000       -3.82139742260000       -0.33708752620000
C           -1.30799537430000       -2.58025359910000        0.13092889180000
C           -0.16347801660000       -1.67594990440000        0.02755814080000
C            1.13563845900000       -2.18046692990000        0.09779775800000
C            2.23467329840000       -1.35477218670000        0.05721258860000
C            2.06951081940000        0.02776459450000       -0.05886177610000
O            3.20997953340000        0.76462406090000       -0.08732570550000
C            3.10782989590000        2.16654476260000       -0.17214183900000
C            0.78592264430000        0.54857955570000       -0.13984046140000
C           -0.33010519510000       -0.28649536480000       -0.09472650740000
C           -1.67157385280000        0.27256818870000       -0.23427319880000
C           -2.06196336210000        1.49454488940000        0.09093304820000
F           -1.33447268910000        2.46348357730000        0.63913566780000
F           -3.30714144560000        1.93792600070000       -0.08060608560000
H           -2.19699410130000       -4.45200373920000       -0.21831511080000
H           -0.50015734940000       -4.24945811640000       -0.86959325800000
H           -2.17945862790000       -2.18846695210000        0.63918858870000
H            1.27745174840000       -3.24405712230000        0.21251618580000
H            3.23581432530000       -1.75029479550000        0.11954889120000
H            4.13101210970000        2.53753865330000       -0.14302221170000
H            2.54757341590000        2.58065404830000        0.67177175100000
H            2.63745746780000        2.47896946090000       -1.10993998770000
H            0.63839300380000        1.60833766410000       -0.26020400830000
H           -2.43840823790000       -0.36555113910000       -0.64631777450000
$end

$rem
BASIS = 6-31G*
GUI = 2
METHOD = B3LYP
PRINT_ORBITALS false
MOLDEN_FORMAT false
$end
--------------------------------------------------------------

             Standard Nuclear Orientation (Angstroms)
    I     Atom           X                Y                Z
 ----------------------------------------------------------------
    1      C      -1.9320526367    -3.5276716569    -0.2107416738
    2      C      -1.7284154975    -2.2863270419     0.2107827616
    3      C      -0.4605905334    -1.5669390146     0.0947164318
    4      C       0.7477355419    -2.2556606649     0.2077882411
    5      C       1.9580691162    -1.6046883662     0.1565608204
    6      C       2.0024741617    -0.2186889818    -0.0143009721
    7      O       3.2403693844     0.3388322282    -0.0493220241
    8      C       3.3495727794     1.7358681662    -0.1885167993
    9      C       0.8120685948     0.4834019588    -0.1384270053
   10      C      -0.4165230894    -0.1741339254    -0.0826366438
   11      C      -1.6577094385     0.5720169762    -0.2677819232
   12      C      -1.8655330870     1.8504032359     0.0041151737
   13      F      -1.0086454329     2.7215638726     0.5289329188
   14      F      -3.0283654654     2.4666685431    -0.2068797897
   15      H      -2.8821852352    -4.0176369497    -0.0843783682
   16      H      -1.1660089807    -4.0955341556    -0.7113664111
   17      H      -2.5380509176    -1.7494893956     0.6878244021
   18      H       0.7278395917    -3.3230940045     0.3649048881
   19      H       2.8881369254    -2.1417580845     0.2521500057
   20      H       4.4161970295     1.9515958916    -0.1544503962
   21      H       2.8467157121     2.2618959301     0.6287919140
   22      H       2.9429837417     2.0771069110    -1.1458914671
   23      H       0.8258124718     1.5476732476    -0.3011456464
   24      H      -2.5058727977     0.0390069311    -0.6696913545
 ----------------------------------------------------------------

    9    -700.0348390688      5.54e-06  Convergence criterion met
 Total energy in the final basis set =     -700.0348390688

                    Orbital Energies (a.u.)
 --------------------------------------------------------------

 Alpha MOs
 -- Occupied --
-24.7434 -24.7345 -19.1796 -10.3569 -10.2465 -10.2408 -10.2061 -10.2016
-10.1899 -10.1889 -10.1870 -10.1848 -10.1819 -10.1786  -1.2846  -1.2240
 -1.0702  -0.8694  -0.8071  -0.7922  -0.7429  -0.7361  -0.6972  -0.6454
 -0.6166  -0.6063  -0.5749  -0.5575  -0.5393  -0.5215  -0.5158  -0.4866
 -0.4785  -0.4725  -0.4473  -0.4432  -0.4383  -0.4342  -0.4321  -0.4122
 -0.4059  -0.3986  -0.3827  -0.3583  -0.3490  -0.3354  -0.3260  -0.2931
 -0.2722  -0.2331  -0.2054

          Ground-State Mulliken Net Atomic Charges

     Atom                 Charge (a.u.)
  ----------------------------------------
      1 C                    -0.341712
      2 C                    -0.133826
      3 C                     0.094536
      4 C                    -0.189395
      5 C                    -0.170527
      6 C                     0.386011
      7 O                    -0.506035
      8 C                    -0.216039
      9 C                    -0.274977
     10 C                     0.126997
     11 C                    -0.319698
     12 C                     0.552557
     13 F                    -0.237731
     14 F                    -0.248296
     15 H                     0.141775
     16 H                     0.143774
     17 H                     0.137178
     18 H                     0.132909
     19 H                     0.136249
     20 H                     0.170000
     21 H                     0.155169
     22 H                     0.152631
     23 H                     0.136793
     24 H                     0.171659
  ----------------------------------------
  Sum of atomic charges =     0.000000

                    Cartesian Multipole Moments
 -----------------------------------------------------------------
    Charge (ESU x 10^10)
                 0.0000
    Dipole Moment (Debye)
         X       0.4250      Y       0.3592      Z      -0.2981
       Tot       0.6313
    Quadrupole Moments (Debye-Ang)
        XX     -75.9317     XY       6.6126     YY     -74.2949
        XZ      -0.6154     YZ      -0.5845     ZZ     -81.4196

 Total job time:  54.18s(wall), 50.82s(cpu)
        *  Thank you very much for using Q-Chem.  Have a nice day.  *
