 Q-Chem 5.4, Q-Chem, Inc., Pleasanton, CA (2021)
 Q-Chem 5.4.2 for Intel X86 EM64T Linux

User input:
--------------------------------------------------------------
$molecule
0 1
C           -1.33614878370000       -3.82200048170000        0.32975882780000
C           -1.31055205340000       -2.57831307810000       -0.13143283430000
C           -0.16500591960000       -1.67570293470000       -0.02608776650000
C            1.13375541310000       -2.18131564210000       -0.09580781670000
C            2.23348625580000       -1.35657590240000       -0.05517111950000
C            2.06954130110000        0.02619609340000        0.05983187600000
O            3.21059091860000        0.76217466030000        0.08708885750000
C            3.10954288110000        2.16441884590000        0.16782049560000
C            0.78639783140000        0.54806011180000        0.14130489110000
C           -0.33030463290000       -0.28609255940000        0.09669802320000
C           -1.67110832950000        0.27445280650000        0.23724996770000
C           -2.06053896360000        1.49619186660000       -0.08985902190000
F           -1.33269848000000        2.46292819140000       -0.64145398710000
F           -3.30478691780000        1.94162189810000        0.08311462670000
H           -2.20173929370000       -4.45047633900000        0.20909925290000
H           -0.50365583010000       -4.25424563180000        0.85893673030000
H           -2.18255253360000       -2.18286349120000       -0.63590330140000
H            1.27482354640000       -3.24497643880000       -0.21065583490000
H            3.23428128020000       -1.75303494800000       -0.11717509420000
H            4.13295043360000        2.53461607130000        0.13630127060000
H            2.64048750340000        2.48009204000000        1.10518965720000
H            2.54855437470000        2.57627405070000       -0.67670092750000
H            0.63973515520000        1.60793479510000        0.26181894350000
H           -2.43788560500000       -0.36190994770000        0.65212473270000
$end

$rem
BASIS = 6-31G*
GUI = 2
METHOD = B3LYP
PRINT_ORBITALS false
MOLDEN_FORMAT false
$end
--------------------------------------------------------------

             Standard Nuclear Orientation (Angstroms)
    I     Atom           X                Y                Z
 ----------------------------------------------------------------
    1      C      -1.9368051876    -3.5267341573     0.2042070791
    2      C      -1.7313170186    -2.2834706560    -0.2107408433
    3      C      -0.4624866397    -1.5663764637    -0.0927408948
    4      C       0.7451235636    -2.2565843410    -0.2048871286
    5      C       1.9562100757    -1.6070502558    -0.1536051812
    6      C       2.0022691889    -0.2209226070     0.0157781972
    7      O       3.2407709961     0.3352866049     0.0496339185
    8      C       3.3514994925     1.7326435879     0.1843548209
    9      C       0.8126759612     0.4825523043     0.1399879852
   10      C      -0.4166467461    -0.1735982372     0.0846979005
   11      C      -1.6567293613     0.5743459243     0.2704265949
   12      C      -1.8631835716     1.8524198970    -0.0038112952
   13      F      -1.0059265955     2.7210477828    -0.5321899187
   14      F      -3.0246084079     2.4709637414     0.2082656483
   15      H      -2.8880570399    -4.0140473974     0.0760146976
   16      H      -1.1717609387    -4.0987028197     0.7016694261
   17      H      -2.5406147800    -1.7429524469    -0.6841675688
   18      H       0.7241537839    -3.3240103565    -0.3618156017
   19      H       2.8856396720    -2.1453449089    -0.2485495888
   20      H       4.4182762267     1.9472797072     0.1480064864
   21      H       2.9466164513     2.0773271960     1.1412176069
   22      H       2.8479121868     2.2565070096    -0.6338848684
   23      H       0.8276190620     1.5468464097     0.3025385389
   24      H      -2.5047961044     0.0433510777     0.6752145490
 ----------------------------------------------------------------

    9    -700.0348393060      5.54e-06  Convergence criterion met
 Total energy in the final basis set =     -700.0348393060

                    Orbital Energies (a.u.)
 --------------------------------------------------------------

 Alpha MOs
 -- Occupied --
-24.7434 -24.7345 -19.1796 -10.3569 -10.2465 -10.2408 -10.2061 -10.2016
-10.1899 -10.1889 -10.1870 -10.1848 -10.1819 -10.1785  -1.2846  -1.2240
 -1.0703  -0.8694  -0.8071  -0.7921  -0.7429  -0.7361  -0.6972  -0.6454
 -0.6166  -0.6063  -0.5749  -0.5575  -0.5393  -0.5215  -0.5158  -0.4866
 -0.4785  -0.4725  -0.4473  -0.4432  -0.4383  -0.4342  -0.4321  -0.4122
 -0.4059  -0.3986  -0.3827  -0.3583  -0.3490  -0.3355  -0.3259  -0.2932
 -0.2722  -0.2331  -0.2054

          Ground-State Mulliken Net Atomic Charges

     Atom                 Charge (a.u.)
  ----------------------------------------
      1 C                    -0.341944
      2 C                    -0.133516
      3 C                     0.094875
      4 C                    -0.189449
      5 C                    -0.170514
      6 C                     0.385973
      7 O                    -0.506012
      8 C                    -0.216053
      9 C                    -0.274771
     10 C                     0.126608
     11 C                    -0.319825
     12 C                     0.552609
     13 F                    -0.237736
     14 F                    -0.248283
     15 H                     0.141763
     16 H                     0.143718
     17 H                     0.137102
     18 H                     0.132880
     19 H                     0.136259
     20 H                     0.170007
     21 H                     0.152631
     22 H                     0.155191
     23 H                     0.136764
     24 H                     0.171723
  ----------------------------------------
  Sum of atomic charges =     0.000000

                    Cartesian Multipole Moments
 -----------------------------------------------------------------
    Charge (ESU x 10^10)
                 0.0000
    Dipole Moment (Debye)
         X       0.4273      Y       0.3616      Z       0.2955
       Tot       0.6330
    Quadrupole Moments (Debye-Ang)
        XX     -75.9136     XY       6.6074     YY     -74.3058
        XZ       0.5943     YZ       0.5823     ZZ     -81.4297

 Total job time:  46.96s(wall), 46.07s(cpu)
        *  Thank you very much for using Q-Chem.  Have a nice day.  *
