 Q-Chem 5.2, Q-Chem, Inc., Pleasanton, CA (2019)
 Q-Chem 5.2.1 for Intel X86 EM64T Linux

User input:
--------------------------------------------------------------
$molecule
0 1
C        -3.76924131650000    1.25432144010000   -0.07676622330000
C        -3.14974248330000    0.07895904590000   -0.06233962230000
C        -1.71511506090000   -0.15621919370000   -0.02221813400000
C        -1.23663343410000   -1.46799057070000   -0.03835634590000
C         0.11246594050000   -1.74067015420000   -0.00284712740000
C         1.05623562700000   -0.71099153500000    0.04791760410000
N         2.40115398600000   -0.97242652490000   -0.02025677550000
C         2.95953958790000   -2.28393650320000    0.18644178200000
C         0.59116666190000    0.62361755440000    0.08673565390000
C         1.52177028690000    1.74641883130000    0.20584072170000
C         1.35950174590000    2.93135349660000   -0.36711389140000
C        -0.77330184710000    0.86790388020000    0.04560454420000
H        -4.84337529050000    1.32055859870000   -0.10861641290000
H        -3.24138984530000    2.19232663530000   -0.05786539420000
H        -3.74889174930000   -0.82425013610000   -0.08609462190000
H        -1.93933390490000   -2.28886600460000   -0.07744613460000
H         0.44058794640000   -2.76787883980000   -0.01841347310000
H         3.00540608880000   -0.20034155370000    0.20860506350000
H         2.62092104700000   -2.96368358310000   -0.59783394220000
H         2.68491618850000   -2.71018499380000    1.15954759730000
H         4.04385839300000   -2.21534555720000    0.13004749350000
H         2.39322427840000    1.58719062890000    0.83341549450000
H         0.52627129160000    3.13870070570000   -1.01689372350000
H         2.06146938290000    3.73442249650000   -0.21924558400000
H        -1.10507779400000    1.89289747060000    0.09775380020000
$end

$rem
BASIS = 6-31G*
GUI = 2
METHOD = B3LYP
PRINT_ORBITALS false
MOLDEN_FORMAT false
--------------------------------------------------------------

             Standard Nuclear Orientation (Angstroms)
    I     Atom           X                Y                Z
 ----------------------------------------------------------------
    1      C       3.9889597939    -0.0336259819     0.0486545720
    2      C       3.0393117055     0.8944850665     0.0013039767
    3      C       1.6010376017     0.6789923746     0.0035133539
    4      C       0.7447767560     1.7790927514    -0.0773926390
    5      C      -0.6234515426     1.6253718118    -0.0797116810
    6      C      -1.2078753916     0.3580096601    -0.0038283560
    7      N      -2.5654180948     0.1913240630    -0.1091616980
    8      C      -3.5046451634     1.2742779351     0.0309833047
    9      C      -0.3581008026    -0.7671521799     0.1004375851
   10      C      -0.9036473228    -2.1166946735     0.2487813880
   11      C      -0.3685257344    -3.2134594667    -0.2702851810
   12      C       1.0162376208    -0.5819005633     0.0962392799
   13      H       5.0322601833     0.2321260655     0.0405467507
   14      H       3.7732210617    -1.0871746105     0.0969272321
   15      H       3.3336923895     1.9366677161    -0.0489584071
   16      H       1.1633682894     2.7742427728    -0.1374759510
   17      H      -1.2495677564     2.5010251087    -0.1450862637
   18      H      -2.9112481662    -0.7206866735     0.1403408593
   19      H      -3.3658055406     1.9978605639    -0.7745964610
   20      H      -3.4044587727     1.7973562642     0.9903541734
   21      H      -4.5135893204     0.8741427866    -0.0435543090
   22      H      -1.8013263077    -2.2113470898     0.8519804723
   23      H       0.5082115030    -3.1770701509    -0.8943743729
   24      H      -0.7952962937    -4.1877205061    -0.1022800165
   25      H       1.6440002700    -1.4530710933     0.1981345597
 ----------------------------------------------------------------

    9    -481.7041124116      2.16e-06  Convergence criterion met
 Total energy in the final basis set =     -481.7041124116

                    Orbital Energies (a.u.)
 --------------------------------------------------------------

 Alpha MOs
 -- Occupied --
-14.3484 -10.2232 -10.2198 -10.1907 -10.1841 -10.1785 -10.1775 -10.1768
-10.1764 -10.1744 -10.1733 -10.1634  -0.9421  -0.8489  -0.7956  -0.7702
 -0.7273  -0.7201  -0.6814  -0.6267  -0.6057  -0.5639  -0.5441  -0.5317
 -0.4964  -0.4685  -0.4500  -0.4471  -0.4401  -0.4375  -0.4186  -0.4034
 -0.3940  -0.3819  -0.3720  -0.3582  -0.3385  -0.3265  -0.3160  -0.2867
 -0.2538  -0.2275  -0.1806

          Ground-State Mulliken Net Atomic Charges

     Atom                 Charge (a.u.)
  ----------------------------------------
      1 C                    -0.362320
      2 C                    -0.116769
      3 C                     0.186935
      4 C                    -0.208489
      5 C                    -0.187074
      6 C                     0.295281
      7 N                    -0.645708
      8 C                    -0.302382
      9 C                     0.129206
     10 C                    -0.146573
     11 C                    -0.335845
     12 C                    -0.268372
     13 H                     0.135460
     14 H                     0.134948
     15 H                     0.118679
     16 H                     0.122542
     17 H                     0.121595
     18 H                     0.318742
     19 H                     0.167276
     20 H                     0.152371
     21 H                     0.156941
     22 H                     0.120705
     23 H                     0.147292
     24 H                     0.138993
     25 H                     0.126567
  ----------------------------------------
  Sum of atomic charges =     0.000000

                    Cartesian Multipole Moments
 -----------------------------------------------------------------
    Charge (ESU x 10^10)
                 0.0000
    Dipole Moment (Debye)
         X      -2.5821      Y       0.0215      Z       0.4464
       Tot       2.6205
    Quadrupole Moments (Debye-Ang)
        XX     -62.1398     XY      -0.3793     YY     -65.0846
        XZ      -2.3841     YZ      -0.6532     ZZ     -76.3194

 Total job time:  32.03s(wall), 30.52s(cpu)
        *  Thank you very much for using Q-Chem.  Have a nice day.  *
