 Q-Chem 5.2, Q-Chem, Inc., Pleasanton, CA (2019)
 Q-Chem 5.2.1 for Intel X86 EM64T Linux

User input:
--------------------------------------------------------------
$molecule
0 1
C         3.18863330460000   -1.69764010970000    0.02764065040000
C         2.78745433300000   -0.43291580800000    0.00169560060000
C         1.40855798710000    0.03412775170000   -0.01793601890000
C         0.28803909880000   -0.81048636360000   -0.09389892690000
C        -0.97314602140000   -0.25030386650000   -0.09149996970000
C        -2.19257431110000   -1.04207732820000   -0.21273245620000
C        -2.33238001820000   -2.27892586870000    0.24584822460000
C        -1.01558979120000    1.16812852860000    0.00589210380000
N        -2.18712402830000    1.86443301010000    0.01617286550000
N         0.09272188270000    1.90261332120000    0.03621719220000
N         1.26413483300000    1.35476939680000    0.01829288360000
H         4.23446415010000   -1.95154557470000    0.04505699560000
H         2.50377140060000   -2.52926326490000    0.03422935150000
H         3.50874172930000    0.37271202740000    0.00317095700000
H         0.40639062150000   -1.87822066590000   -0.19273863090000
H        -3.01856433550000   -0.55611991800000   -0.71697285800000
H        -1.54084711830000   -2.78523369650000    0.77270341600000
H        -3.25103268150000   -2.82660850930000    0.12439244140000
H        -3.02323774700000    1.41010187440000    0.33890529260000
H        -2.09310476210000    2.84636190870000    0.21764419630000
$end

$rem
BASIS = 6-31G*
GUI = 2
METHOD = B3LYP
PRINT_ORBITALS false
MOLDEN_FORMAT false
--------------------------------------------------------------

             Standard Nuclear Orientation (Angstroms)
    I     Atom           X                Y                Z
 ----------------------------------------------------------------
    1      C       3.4405903402    -1.0663912317     0.0165920066
    2      C       2.8258661671     0.1096408607     0.0021704629
    3      C       1.3868310706     0.3302903175    -0.0168565745
    4      C       0.4301381011    -0.6952536630    -0.1046293054
    5      C      -0.9091785893    -0.3626720785    -0.1003415645
    6      C      -1.9724022769    -1.3528876431    -0.2331437107
    7      C      -1.8957899175    -2.5999283741     0.2125648826
    8      C      -1.1974637373     1.0257415972     0.0111765400
    9      N      -2.4721450464     1.5078568557     0.0249798556
   10      N      -0.2336100423     1.9411911124     0.0521707814
   11      N       1.0151742256     1.6053307034     0.0322162228
   12      H       4.5146047982    -1.1349742876     0.0345580873
   13      H       2.9105784666    -2.0043407320     0.0127894527
   14      H       3.3962555603     1.0282336111     0.0138834093
   15      H       0.7322649721    -1.7251197976    -0.2138447303
   16      H      -2.8696510559    -1.0125418460    -0.7349224216
   17      H      -1.0289663490    -2.9665339564     0.7366503612
   18      H      -2.7052066830    -3.2975372875     0.0828852712
   19      H      -3.2170143886     0.9118846207     0.3406472581
   20      H      -2.5503462271     2.4890402642     0.2365888718
 ----------------------------------------------------------------

    9    -474.4493957738      3.10e-06  Convergence criterion met
 Total energy in the final basis set =     -474.4493957738

                    Orbital Energies (a.u.)
 --------------------------------------------------------------

 Alpha MOs
 -- Occupied --
-14.3566 -14.3497 -14.3446 -10.2635 -10.2165 -10.2156 -10.2094 -10.2078
-10.1997 -10.1856 -10.1791  -1.0239  -0.9359  -0.8426  -0.8192  -0.7671
 -0.7511  -0.6712  -0.6562  -0.5916  -0.5622  -0.5554  -0.5377  -0.4935
 -0.4854  -0.4607  -0.4417  -0.4343  -0.4222  -0.4145  -0.3809  -0.3580
 -0.3542  -0.3309  -0.3120  -0.2901  -0.2568  -0.2150  -0.2117

          Ground-State Mulliken Net Atomic Charges

     Atom                 Charge (a.u.)
  ----------------------------------------
      1 C                    -0.358138
      2 C                    -0.082504
      3 C                     0.302846
      4 C                    -0.228471
      5 C                     0.167202
      6 C                    -0.146371
      7 C                    -0.330316
      8 C                     0.439080
      9 N                    -0.781381
     10 N                    -0.347618
     11 N                    -0.334532
     12 H                     0.147276
     13 H                     0.135271
     14 H                     0.147297
     15 H                     0.143492
     16 H                     0.142714
     17 H                     0.152468
     18 H                     0.152737
     19 H                     0.334047
     20 H                     0.344900
  ----------------------------------------
  Sum of atomic charges =     0.000000

                    Cartesian Multipole Moments
 -----------------------------------------------------------------
    Charge (ESU x 10^10)
                 0.0000
    Dipole Moment (Debye)
         X      -3.0001      Y      -3.0094      Z       0.6642
       Tot       4.3009
    Quadrupole Moments (Debye-Ang)
        XX     -52.0508     XY      -4.6465     YY     -64.8499
        XZ      -1.9201     YZ       0.6431     ZZ     -66.7303

 Total job time:  22.43s(wall), 22.18s(cpu)
        *  Thank you very much for using Q-Chem.  Have a nice day.  *
