 Q-Chem 5.4, Q-Chem, Inc., Pleasanton, CA (2021)
 Q-Chem 5.4.2 for Intel X86 EM64T Linux

User input:
--------------------------------------------------------------
$molecule
0 1
C           -2.16715316790000       -2.09699692890000        0.88887592760000
C           -1.26966097790000       -2.08576603480000       -0.08521822390000
C           -0.05629682860000       -1.26508628990000       -0.10230921000000
C            1.14338769370000       -1.87373932030000       -0.47730298950000
C            2.34337380390000       -1.20461399470000       -0.42304306780000
C            2.38716747890000        0.12129578810000        0.01491750260000
O            3.61806317550000        0.69730803600000        0.05298833050000
C            3.72599029550000        2.03438435380000        0.47753488490000
C            1.20134183230000        0.75069622130000        0.36415621800000
C           -0.01759559930000        0.07684509080000        0.29033194700000
C           -1.22039269090000        0.86119360840000        0.59224271910000
C           -2.31269024990000        0.89436153520000       -0.14907706980000
F           -2.54023511260000        0.21247926330000       -1.26407404920000
F           -3.37344733890000        1.65390506020000        0.12441116470000
H           -3.01970177040000       -2.75344924540000        0.86274807640000
H           -2.08180107410000       -1.45767847960000        1.75227754060000
H           -1.36952803500000       -2.77235518280000       -0.91616731350000
H            1.12442443900000       -2.90448988790000       -0.79941322900000
H            3.26639685130000       -1.68348311100000       -0.70787140400000
H            4.78704456560000        2.27361540970000        0.42907302500000
H            3.37450573410000        2.15926206040000        1.50682088460000
H            3.17309548020000        2.71163675860000       -0.18145607980000
H            1.19401090030000        1.78360696220000        0.67617569830000
H           -1.18892387470000        1.52809234600000        1.44109685360000
$end

$rem
BASIS = 6-31G*
GUI = 2
METHOD = B3LYP
PRINT_ORBITALS false
MOLDEN_FORMAT false
$end
--------------------------------------------------------------

             Standard Nuclear Orientation (Angstroms)
    I     Atom           X                Y                Z
 ----------------------------------------------------------------
    1      C      -2.4507271935    -1.7029067077     1.0950209160
    2      C      -1.5888797624    -1.8899393404     0.1067316972
    3      C      -0.2855534777    -1.2312200348    -0.0094120772
    4      C       0.8188372021    -2.0151621619    -0.3501139510
    5      C       2.0925904870    -1.4982125663    -0.3810200988
    6      C       2.3112390002    -0.1543861328    -0.0678309489
    7      O       3.6037994596     0.2652631631    -0.1068904029
    8      C       3.8870227264     1.6109617683     0.1906679355
    9      C       1.2223382073     0.6460479602     0.2450514183
   10      C      -0.0713926283     0.1250443836     0.2572837265
   11      C      -1.1596777361     1.0765093835     0.5091238205
   12      C      -2.2619940330     1.1791498743    -0.2106906066
   13      F      -2.6051310471     0.4344448043    -1.2535854765
   14      F      -3.2132658970     2.0859211630     0.0123686982
   15      H      -3.3773940108    -2.2480130441     1.1460024788
   16      H      -2.2615650461    -1.0049571028     1.8941200561
   17      H      -1.7972131469    -2.6299158713    -0.6554273488
   18      H       0.6643866869    -3.0600837173    -0.5756030316
   19      H       2.9411180672    -2.1114950378    -0.6385077948
   20      H       4.9673476460     1.7112018013     0.0997491919
   21      H       3.5851441319     1.8695496030     1.2107498703
   22      H       3.4009305178     2.2904012226    -0.5169399933
   23      H       1.3506574052     1.6954753608     0.4608077894
   24      H      -1.0210521837     1.8071192195     1.2922520208
 ----------------------------------------------------------------

    9    -700.0266789410      4.86e-06  Convergence criterion met
 Total energy in the final basis set =     -700.0266789410

                    Orbital Energies (a.u.)
 --------------------------------------------------------------

 Alpha MOs
 -- Occupied --
-24.7320 -24.7285 -19.1804 -10.3489 -10.2473 -10.2424 -10.2047 -10.1953
-10.1894 -10.1878 -10.1870 -10.1848 -10.1826 -10.1726  -1.2760  -1.2161
 -1.0710  -0.8689  -0.8043  -0.7871  -0.7426  -0.7383  -0.6931  -0.6429
 -0.6085  -0.6043  -0.5677  -0.5637  -0.5383  -0.5117  -0.4999  -0.4897
 -0.4772  -0.4738  -0.4508  -0.4416  -0.4329  -0.4289  -0.4250  -0.4158
 -0.4045  -0.3899  -0.3798  -0.3635  -0.3462  -0.3310  -0.3282  -0.2833
 -0.2647  -0.2355  -0.2044

          Ground-State Mulliken Net Atomic Charges

     Atom                 Charge (a.u.)
  ----------------------------------------
      1 C                    -0.332711
      2 C                    -0.140850
      3 C                     0.104146
      4 C                    -0.188105
      5 C                    -0.166919
      6 C                     0.381054
      7 O                    -0.504366
      8 C                    -0.214840
      9 C                    -0.254226
     10 C                     0.118636
     11 C                    -0.357321
     12 C                     0.584784
     13 F                    -0.233108
     14 F                    -0.250523
     15 H                     0.140348
     16 H                     0.146301
     17 H                     0.133687
     18 H                     0.131331
     19 H                     0.136933
     20 H                     0.170615
     21 H                     0.150850
     22 H                     0.152549
     23 H                     0.129595
     24 H                     0.162138
  ----------------------------------------
  Sum of atomic charges =     0.000000

                    Cartesian Multipole Moments
 -----------------------------------------------------------------
    Charge (ESU x 10^10)
                -0.0000
    Dipole Moment (Debye)
         X       1.3347      Y       1.0108      Z       0.6884
       Tot       1.8103
    Quadrupole Moments (Debye-Ang)
        XX     -77.8163     XY       7.3484     YY     -72.8748
        XZ      -0.6520     YZ       3.4328     ZZ     -79.8797

 Total job time:  50.33s(wall), 49.29s(cpu)
        *  Thank you very much for using Q-Chem.  Have a nice day.  *
