 Q-Chem 5.2, Q-Chem, Inc., Pleasanton, CA (2019)
 Q-Chem 5.2.1 for Intel X86 EM64T Linux

User input:
--------------------------------------------------------------
$molecule
0 1
C        -0.62809741420000    4.86107956350000   -1.82684735870000
C        -1.57063937260000    3.94218223820000   -1.64779231820000
C        -1.69471530320000    2.98947332910000   -0.55467200920000
C        -2.91426354530000    2.32353580880000   -0.42199008330000
C        -3.17256591460000    1.39823675210000    0.57632178590000
O        -4.34054773700000    0.69997478400000    0.66301289860000
C        -5.18463786350000    0.62145226250000   -0.46774398270000
C        -6.03169748840000   -0.64939476650000   -0.37850327790000
C        -5.26417557060000   -1.90879635450000   -0.78764152130000
C        -4.27258116010000   -2.37396506480000    0.27819923790000
C        -3.30633190450000   -3.44898495300000   -0.22037354550000
C        -2.30403042490000   -2.97334725200000   -1.27642570870000
C        -1.44306052060000   -1.77713779380000   -0.86429285330000
C        -0.59902289980000   -1.99234255990000    0.39197226430000
C         0.44843611030000   -3.10168516720000    0.28763734700000
C         1.50510930790000   -2.83515283450000   -0.77859648340000
C        -2.17552251000000    1.14391497390000    1.53819902890000
C        -2.32750305850000    0.24095936420000    2.66986408530000
C        -3.45919001490000   -0.22361321000000    3.18749798630000
C        -0.94695084860000    1.78455272170000    1.38587949300000
C        -0.67222396860000    2.67974991210000    0.36318463040000
O         0.54067387740000    3.28672124640000    0.19970178970000
C         1.68126159050000    2.75148336580000    0.83983491430000
C         2.06051309350000    1.37189075050000    0.29713197410000
C         3.13233694030000    0.67610094330000    1.13329371140000
C         4.50562767500000    1.34897741200000    1.10345520240000
C         5.12398624520000    1.48776493640000   -0.29024484040000
C         5.21333874740000    0.18758958630000   -1.09123727250000
C         6.05416133220000   -0.89313894500000   -0.41604082310000
C         6.17420033570000   -2.13930529460000   -1.29017042270000
C         6.99488502870000   -3.23782062170000   -0.61904385970000
C         7.10956140100000   -4.47724014730000   -1.49789884990000
H        -0.65507558420000    5.51813969490000   -2.68075573900000
H         0.18535154880000    4.99342439730000   -1.13923559590000
H        -2.37613965710000    3.88055414010000   -2.37169745800000
H        -3.68947119510000    2.56519001650000   -1.13354449700000
H        -4.58937546240000    0.59656593330000   -1.38942971410000
H        -5.83849265350000    1.50566100440000   -0.49748183180000
H        -6.89080662650000   -0.52169467590000   -1.04025232740000
H        -6.40037359530000   -0.75324591990000    0.64272314720000
H        -4.73750316360000   -1.70409648850000   -1.72142357170000
H        -5.97863738060000   -2.71205886980000   -0.98512158610000
H        -4.83537090880000   -2.77715869850000    1.12411225710000
H        -3.70695605830000   -1.52284953150000    0.64971524670000
H        -3.88106105670000   -4.27741883810000   -0.64437734980000
H        -2.75699315600000   -3.84222742280000    0.63719927240000
H        -2.84056818650000   -2.70534780860000   -2.18966110840000
H        -1.65417301320000   -3.81395117500000   -1.52994917510000
H        -2.08346528200000   -0.90982040970000   -0.69370751930000
H        -0.78655937780000   -1.52333537590000   -1.69954792850000
H        -1.25957010440000   -2.20696728230000    1.23374453150000
H        -0.08882276290000   -1.05255684410000    0.61819926810000
H        -0.04059831520000   -4.05552775870000    0.08303237370000
H         0.94344384780000   -3.19246066090000    1.25820859470000
H         1.07290003900000   -2.86687917820000   -1.77534007180000
H         2.29130112680000   -3.58579205530000   -0.72754698600000
H         1.95462468380000   -1.85513771800000   -0.63141844510000
H        -1.38936841290000   -0.03854886240000    3.13664242740000
H        -4.42241732840000    0.03708811310000    2.79129052070000
H        -3.44701774080000   -0.88200997150000    4.04051714210000
H        -0.18841729510000    1.56468282900000    2.12145932890000
H         1.54186198860000    2.71389989250000    1.92849906030000
H         2.46928180780000    3.47800523010000    0.62590994280000
H         2.38715727050000    1.47682321050000   -0.73780590530000
H         1.16212884800000    0.74966992410000    0.28907252420000
H         3.23146013820000   -0.35316817370000    0.78502754490000
H         2.79460105050000    0.63112318370000    2.17262593100000
H         5.18026197220000    0.76964231760000    1.73711831100000
H         4.42877470740000    2.34521630630000    1.54451596750000
H         6.13031977130000    1.89763713020000   -0.17243449350000
H         4.54764731310000    2.21210116020000   -0.86954684410000
H         5.65610242570000    0.41821325320000   -2.06383642120000
H         4.21145070000000   -0.20202124140000   -1.27961166410000
H         5.60233752180000   -1.17436293370000    0.53674195310000
H         7.05146213490000   -0.49845451070000   -0.20725803220000
H         6.64092493450000   -1.87160408780000   -2.24122946770000
H         5.17410656030000   -2.52122311440000   -1.51061406380000
H         6.52674852350000   -3.50864240750000    0.33035104570000
H         7.99438754920000   -2.85658561830000   -0.39717499460000
H         6.12387828760000   -4.88446790080000   -1.71308189350000
H         7.69815658170000   -5.24622301470000   -1.00286287450000
H         7.59054378020000   -4.23164693510000   -2.44231386230000
$end

$rem
BASIS = 6-31G*
GUI = 2
METHOD = B3LYP
PRINT_ORBITALS false
MOLDEN_FORMAT false
--------------------------------------------------------------

             Standard Nuclear Orientation (Angstroms)
    I     Atom           X                Y                Z
 ----------------------------------------------------------------
    1      C      -1.2881164378    -4.6518928051     2.1950025900
    2      C      -2.0948847067    -3.6124924472     2.0117262915
    3      C      -2.1569112920    -2.7199504077     0.8639098766
    4      C      -3.2708896731    -1.8850078462     0.7624294604
    5      C      -3.4623543695    -0.9932850701    -0.2804975778
    6      O      -4.5172980163    -0.1315399397    -0.3417829332
    7      C      -5.2546925243     0.1431564351     0.8321234915
    8      C      -5.9085725835     1.5206019511     0.7071802991
    9      C      -4.9350207565     2.6705869173     0.9760813480
   10      C      -3.9668900279     2.9136320953    -0.1812042096
   11      C      -2.8180381028     3.8568300503     0.1771211678
   12      C      -1.8220041756     3.2986510521     1.1981198318
   13      C      -1.1803590990     1.9623562833     0.8177941543
   14      C      -0.4088037439     1.9698131833    -0.5018881450
   15      C       0.7961253008     2.9106115588    -0.5436204722
   16      C       1.8774835580     2.5510224329     0.4692034474
   17      C      -2.5123850514    -0.9527646013    -1.3196796285
   18      C      -2.6121405902    -0.1073769610    -2.5005527335
   19      C      -3.6976811238     0.4922224438    -2.9765466443
   20      C      -1.3843136230    -1.7629384544    -1.2010226756
   21      C      -1.1703957432    -2.6259974913    -0.1370086298
   22      O      -0.0519754163    -3.3998943684    -0.0086278651
   23      C       1.1048846082    -3.0846912603    -0.7566333609
   24      C       1.7231597707    -1.7488202610    -0.3385203802
   25      C       2.8214997249    -1.2766185737    -1.2886630941
   26      C       4.0784865094    -2.1480888177    -1.2988786777
   27      C       4.7706408857    -2.2949667975     0.0588320006
   28      C       5.1103163062    -0.9775688580     0.7581974019
   29      C       6.0496907361    -0.0806605983    -0.0442851692
   30      C       6.4170335551     1.1832065497     0.7297571911
   31      C       7.3394804308     2.1009792284    -0.0686507401
   32      C       7.7008845929     3.3592953210     0.7109165547
   33      H      -1.3489578800    -5.2442307990     3.0933618610
   34      H      -0.5562037268    -4.9481793532     1.4679933936
   35      H      -2.8267466794    -3.3849790835     2.7793740652
   36      H      -4.0186769410    -1.9620326969     1.5373712094
   37      H      -4.5959248559     0.1326813556     1.7098345343
   38      H      -6.0282210881    -0.6274985072     0.9662131862
   39      H      -6.7259149426     1.5657715534     1.4298135421
   40      H      -6.3321658155     1.6174714719    -0.2932174293
   41      H      -4.3769871877     2.4448369191     1.8865044647
   42      H      -5.5061772606     3.5839167410     1.1612666697
   43      H      -4.5246795214     3.3460135000    -1.0159397638
   44      H      -3.5624469924     1.9652709629    -0.5267335790
   45      H      -3.2309434041     4.7873837150     0.5770894362
   46      H      -2.2813483560     4.1090088644    -0.7395106013
   47      H      -2.3234239671     3.1714331310     2.1604550955
   48      H      -1.0379675266     4.0440505711     1.3493476372
   49      H      -1.9529064177     1.1941843237     0.7504180433
   50      H      -0.5088237005     1.6623967878     1.6253367031
   51      H      -1.0906091965     2.2313491566    -1.3128796310
   52      H      -0.0614243899     0.9512364008    -0.6929613015
   53      H       0.4701050640     3.9385162894    -0.3764193243
   54      H       1.2261244860     2.8658746870    -1.5478020844
   55      H       1.5294811793     2.7086026550     1.4867357624
   56      H       2.7601840374     3.1684383498     0.3149299359
   57      H       2.1648932097     1.5068062133     0.3635471389
   58      H      -1.6800030228    -0.0030515087    -3.0449232307
   59      H      -4.6569902189     0.4060050456    -2.5021575494
   60      H      -3.6511782146     1.0881917468    -3.8731704279
   61      H      -0.6579682050    -1.7063128811    -1.9972698073
   62      H       0.8926251334    -3.0922544860    -1.8340947766
   63      H       1.7903063161    -3.9086387011    -0.5424337511
   64      H       2.1061517705    -1.8395134298     0.6782861554
   65      H       0.9298384272    -0.9974821240    -0.3173021355
   66      H       3.0973032488    -0.2553502643    -1.0213559622
   67      H       2.4183704788    -1.2436406324    -2.3048812101
   68      H       4.7828144606    -1.7179031232    -2.0138275761
   69      H       3.8226872134    -3.1457903417    -1.6623223469
   70      H       5.6937553941    -2.8599507400    -0.0935963690
   71      H       4.1377809677    -2.8864749871     0.7236829066
   72      H       5.5846243565    -1.2137389395     1.7144565825
   73      H       4.1937947015    -0.4289779189     0.9820216586
   74      H       5.5753991881     0.2080054532    -0.9838308808
   75      H       6.9594311965    -0.6347919218    -0.2877717574
   76      H       6.9078950003     0.9055020561     1.6656761781
   77      H       5.5035095401     1.7258764762     0.9859356533
   78      H       6.8478112172     2.3820781368    -1.0030445017
   79      H       8.2524172179     1.5589867861    -0.3262586297
   80      H       6.8049307153     3.9244147458     0.9591424005
   81      H       8.3586589446     3.9980759076     0.1259962024
   82      H       8.2085893792     3.1008213917     1.6377427889
 ----------------------------------------------------------------

    8   -1323.7153561723      6.27e-06  Convergence criterion met
 Total energy in the final basis set =    -1323.7153561723

                    Orbital Energies (a.u.)
 --------------------------------------------------------------

 Alpha MOs
 -- Occupied --
-19.1731 -19.1713 -10.2397 -10.2396 -10.2385 -10.2379 -10.1918 -10.1911
-10.1831 -10.1829 -10.1825 -10.1823 -10.1813 -10.1807 -10.1794 -10.1772
-10.1751 -10.1732 -10.1730 -10.1727 -10.1723 -10.1714 -10.1697 -10.1682
-10.1664 -10.1655 -10.1655 -10.1653 -10.1647 -10.1635 -10.1623 -10.1594
 -1.0653  -1.0621  -0.8604  -0.8199  -0.8115  -0.8059  -0.7974  -0.7927
 -0.7707  -0.7665  -0.7592  -0.7444  -0.7312  -0.7234  -0.7115  -0.6958
 -0.6833  -0.6632  -0.6524  -0.6302  -0.6277  -0.6219  -0.6039  -0.5909
 -0.5846  -0.5749  -0.5669  -0.5621  -0.5571  -0.5435  -0.5258  -0.5178
 -0.5064  -0.5041  -0.4891  -0.4852  -0.4788  -0.4693  -0.4622  -0.4598
 -0.4565  -0.4503  -0.4439  -0.4401  -0.4382  -0.4273  -0.4259  -0.4217
 -0.4207  -0.4175  -0.4138  -0.4082  -0.4027  -0.3995  -0.3958  -0.3947
 -0.3860  -0.3840  -0.3801  -0.3791  -0.3759  -0.3735  -0.3673  -0.3641
 -0.3586  -0.3565  -0.3524  -0.3494  -0.3487  -0.3411  -0.3386  -0.3352
 -0.3318  -0.3285  -0.3242  -0.3233  -0.3206  -0.3133  -0.3129  -0.3121
 -0.3083  -0.3041  -0.3026  -0.3014  -0.2958  -0.2949  -0.2919  -0.2833
 -0.2529  -0.2217  -0.1894

          Ground-State Mulliken Net Atomic Charges

     Atom                 Charge (a.u.)
  ----------------------------------------
      1 C                    -0.350645
      2 C                    -0.118513
      3 C                     0.148896
      4 C                    -0.298042
      5 C                     0.329281
      6 O                    -0.532907
      7 C                    -0.035515
      8 C                    -0.279354
      9 C                    -0.263668
     10 C                    -0.274505
     11 C                    -0.260496
     12 C                    -0.263468
     13 C                    -0.272313
     14 C                    -0.275319
     15 C                    -0.252357
     16 C                    -0.459896
     17 C                     0.151644
     18 C                    -0.122104
     19 C                    -0.349449
     20 C                    -0.291443
     21 C                     0.329574
     22 O                    -0.539171
     23 C                    -0.036339
     24 C                    -0.311079
     25 C                    -0.280377
     26 C                    -0.264430
     27 C                    -0.261828
     28 C                    -0.264528
     29 C                    -0.255032
     30 C                    -0.249278
     31 C                    -0.248946
     32 C                    -0.440899
     33 H                     0.130938
     34 H                     0.168361
     35 H                     0.119237
     36 H                     0.136184
     37 H                     0.139316
     38 H                     0.136347
     39 H                     0.133703
     40 H                     0.150596
     41 H                     0.132160
     42 H                     0.129845
     43 H                     0.121297
     44 H                     0.183155
     45 H                     0.120092
     46 H                     0.131172
     47 H                     0.126483
     48 H                     0.128530
     49 H                     0.145169
     50 H                     0.127642
     51 H                     0.140899
     52 H                     0.138077
     53 H                     0.135625
     54 H                     0.125804
     55 H                     0.149547
     56 H                     0.140630
     57 H                     0.150575
     58 H                     0.122775
     59 H                     0.168834
     60 H                     0.133071
     61 H                     0.133817
     62 H                     0.136866
     63 H                     0.154802
     64 H                     0.153834
     65 H                     0.172674
     66 H                     0.149671
     67 H                     0.128161
     68 H                     0.137018
     69 H                     0.130504
     70 H                     0.129501
     71 H                     0.130907
     72 H                     0.129286
     73 H                     0.137502
     74 H                     0.133106
     75 H                     0.127237
     76 H                     0.127260
     77 H                     0.131082
     78 H                     0.129350
     79 H                     0.129698
     80 H                     0.141786
     81 H                     0.140805
     82 H                     0.141577
  ----------------------------------------
  Sum of atomic charges =     0.000000

                    Cartesian Multipole Moments
 -----------------------------------------------------------------
    Charge (ESU x 10^10)
                -0.0000
    Dipole Moment (Debye)
         X       0.5612      Y       0.5577      Z       0.1889
       Tot       0.8134
    Quadrupole Moments (Debye-Ang)
        XX    -190.7662     XY      -7.2947     YY    -207.5857
        XZ      -8.1892     YZ      -0.7065     ZZ    -199.0830

 Total job time:  273.26s(wall), 272.22s(cpu)
        *  Thank you very much for using Q-Chem.  Have a nice day.  *
