 Q-Chem 5.4, Q-Chem, Inc., Pleasanton, CA (2021)
 Q-Chem 5.4.2 for Intel X86 EM64T Linux

User input:
--------------------------------------------------------------
$molecule
0 1
C           -3.30499502690000        3.37870918050000        0.04996509990000
C           -2.07402311080000        3.01004893190000       -0.28254001900000
C           -1.51510173470000        1.66505689370000       -0.20153914910000
C           -2.28648839090000        0.54149350930000        0.10205842650000
C           -1.73358190030000       -0.72550034570000        0.15917189150000
C           -2.55191053070000       -1.94299865750000        0.45508672030000
C           -0.36830071310000       -0.85446132600000       -0.07675940760000
F            0.16164261270000       -2.09532338680000       -0.07232558550000
C            0.44650279450000        0.23711313340000       -0.36391687680000
C            1.88260262630000        0.11160391930000       -0.60561830660000
C            2.71136902000000       -0.69190059810000        0.04098862880000
F            2.42882198080000       -1.49631684070000        1.05097289060000
F            4.01526241550000       -0.75517255750000       -0.21943052190000
C           -0.15555838890000        1.48958888480000       -0.44212330990000
H           -3.62430021430000        4.40243639610000       -0.04148211570000
H           -4.03972223850000        2.68982560900000        0.42944218910000
H           -1.38208158360000        3.76081761470000       -0.64366230120000
H           -3.34443379870000        0.65032009350000        0.28094652030000
H           -3.58840214200000       -1.67734812210000        0.64183602780000
H           -2.15327336430000       -2.46015347630000        1.32672411690000
H           -2.50858807460000       -2.63712132430000       -0.38340616410000
H            2.31632946560000        0.75274491190000       -1.35789843620000
H            0.45962880740000        2.34568280140000       -0.67751325020000
$end

$rem
BASIS = 6-31G*
GUI = 2
METHOD = B3LYP
PRINT_ORBITALS false
MOLDEN_FORMAT false
$end
--------------------------------------------------------------

             Standard Nuclear Orientation (Angstroms)
    I     Atom           X                Y                Z
 ----------------------------------------------------------------
    1      C       4.4012224930     1.2955699518    -0.3557843389
    2      C       3.1536677193     1.6310259896    -0.0510906820
    3      C       2.0068810394     0.7338816273     0.0381849170
    4      C       2.1242972176    -0.6552583095    -0.0399637689
    5      C       1.0213524759    -1.4844074755     0.0613551392
    6      C       1.1338971320    -2.9757264026     0.0081477110
    7      C      -0.2278687401    -0.8938401016     0.2255616033
    8      F      -1.2970272694    -1.7030175296     0.3763268855
    9      C      -0.3990976555     0.4861895383     0.2895758206
   10      C      -1.7082771811     1.1150340680     0.4543738733
   11      C      -2.8360242826     0.7207033542    -0.1141888205
   12      F      -3.0019084695    -0.2734746079    -0.9692204843
   13      F      -3.9991280400     1.3419260160     0.0681063129
   14      C       0.7400010226     1.2824930669     0.2144471673
   15      H       5.1821117630     2.0348160740    -0.4012037929
   16      H       4.6978822742     0.2850057787    -0.5774609911
   17      H       2.9242466493     2.6709512654     0.1458036760
   18      H       3.0967331875    -1.1045974215    -0.1646846909
   19      H       2.1641890449    -3.2812775170    -0.1496415845
   20      H       0.5171049372    -3.3699137397    -0.7982617260
   21      H       0.7721899616    -3.4127296567     0.9381743276
   22      H      -1.7588817803     1.9999263338     1.0704185059
   23      H       0.6266905301     2.3549221337     0.2762301219
 ----------------------------------------------------------------

    9    -724.0649124354      4.09e-06  Convergence criterion met
 Total energy in the final basis set =     -724.0649124354

                    Orbital Energies (a.u.)
 --------------------------------------------------------------

 Alpha MOs
 -- Occupied --
-24.7379 -24.7330 -24.7092 -10.3566 -10.2692 -10.2112 -10.2038 -10.2033
-10.1986 -10.1951 -10.1932 -10.1926 -10.1865 -10.1818  -1.2831  -1.2237
 -1.2192  -0.8789  -0.8185  -0.8014  -0.7618  -0.7265  -0.6987  -0.6515
 -0.6239  -0.6051  -0.5709  -0.5636  -0.5481  -0.5270  -0.5162  -0.4884
 -0.4772  -0.4676  -0.4459  -0.4396  -0.4374  -0.4340  -0.4243  -0.4183
 -0.4095  -0.4050  -0.3887  -0.3861  -0.3707  -0.3541  -0.3419  -0.3074
 -0.2768  -0.2356  -0.2184

          Ground-State Mulliken Net Atomic Charges

     Atom                 Charge (a.u.)
  ----------------------------------------
      1 C                    -0.354153
      2 C                    -0.114437
      3 C                     0.193157
      4 C                    -0.244668
      5 C                     0.107333
      6 C                    -0.521685
      7 C                     0.260287
      8 F                    -0.287060
      9 C                     0.113734
     10 C                    -0.318638
     11 C                     0.568958
     12 F                    -0.229298
     13 F                    -0.247538
     14 C                    -0.270337
     15 H                     0.145095
     16 H                     0.142509
     17 H                     0.127709
     18 H                     0.126442
     19 H                     0.156063
     20 H                     0.173156
     21 H                     0.172712
     22 H                     0.168590
     23 H                     0.132068
  ----------------------------------------
  Sum of atomic charges =     0.000000

                    Cartesian Multipole Moments
 -----------------------------------------------------------------
    Charge (ESU x 10^10)
                 0.0000
    Dipole Moment (Debye)
         X       1.7228      Y       0.3830      Z       0.2756
       Tot       1.7863
    Quadrupole Moments (Debye-Ang)
        XX     -78.6072     XY      -2.1519     YY     -71.8007
        XZ      -1.4946     YZ       1.5204     ZZ     -80.1343

 Total job time:  68.12s(wall), 54.47s(cpu)
        *  Thank you very much for using Q-Chem.  Have a nice day.  *
