 Q-Chem 5.2, Q-Chem, Inc., Pleasanton, CA (2019)
 Q-Chem 5.2.1 for Intel X86 EM64T Linux

User input:
--------------------------------------------------------------
$molecule
0 1
C         2.47496428550000    2.02024224110000   -1.08057748880000
C         1.36869946220000    1.50224868680000   -1.59691175960000
C         0.03930600790000    1.56374859190000   -0.99127182920000
C        -0.32452815410000    2.57364104170000   -0.11075721870000
C        -1.59435442340000    2.59498258010000    0.46277340960000
C        -2.03205228360000    3.65112689330000    1.36999166440000
C        -1.40592924220000    4.79626794400000    1.60989675180000
C        -2.47779853670000    1.55994705750000    0.17225719720000
C        -2.12744711460000    0.53291523570000   -0.70151136520000
O        -3.09435325070000   -0.41022484000000   -0.90757806350000
C        -2.77667693020000   -1.67973556180000   -1.43875741600000
C        -2.35022281110000   -2.67736268080000   -0.35343328790000
C        -0.97728997790000   -2.39874668570000    0.26464318030000
C         0.18115098150000   -2.80029933240000   -0.65091727640000
C         1.49308160190000   -2.09957468120000   -0.29617619550000
C         1.99227035330000   -2.44959282470000    1.11138836570000
C         3.32860151230000   -1.77798102650000    1.35712359690000
O         3.48086567760000   -0.80522483370000    2.03443501330000
O         4.37274847300000   -2.34593467060000    0.72219814420000
C        -0.87873277520000    0.56117050710000   -1.30685395010000
H         3.42721213880000    1.92052846940000   -1.57259642210000
H         2.48015813140000    2.54296306390000   -0.13978464050000
H         1.42409225890000    0.94697751840000   -2.52632302580000
H         0.38370412890000    3.35150286410000    0.12010568920000
H        -2.97437757710000    3.45380539570000    1.86638687700000
H        -0.47660904760000    5.06257633290000    1.13647813140000
H        -1.81020402720000    5.52288419520000    2.29373851930000
H        -3.46165568420000    1.53540778590000    0.61537653180000
H        -2.02830574830000   -1.61194543190000   -2.23334733910000
H        -3.71166118960000   -2.02901740240000   -1.88846146280000
H        -2.36107790350000   -3.67987160530000   -0.78675713010000
H        -3.10594691990000   -2.64124310480000    0.43352972360000
H        -0.90387659000000   -2.95578425390000    1.20051288290000
H        -0.90200883720000   -1.33813519470000    0.50897151530000
H        -0.06340960310000   -2.54873016370000   -1.68444974270000
H         0.31764557960000   -3.88403077550000   -0.60906817030000
H         1.35591065280000   -1.01794976920000   -0.35585188340000
H         2.25020142010000   -2.37724362840000   -1.03627199870000
H         2.09187396790000   -3.53356073260000    1.21782928970000
H         1.28690281620000   -2.08288936260000    1.85548928130000
H         4.11239339070000   -3.12329930670000    0.21100979570000
H        -0.58037674790000   -0.20047950210000   -2.01046183530000
$end

$rem
BASIS = 6-31G*
GUI = 2
METHOD = B3LYP
PRINT_ORBITALS false
MOLDEN_FORMAT false
--------------------------------------------------------------

             Standard Nuclear Orientation (Angstroms)
    I     Atom           X                Y                Z
 ----------------------------------------------------------------
    1      C      -0.1700369621     2.8452880937     1.8433439988
    2      C       0.2444886287     1.6002583226     2.0352024477
    3      C       1.1711601051     0.8710902367     1.1706431396
    4      C       2.1045832750     1.5212551066     0.3746714914
    5      C       2.9629415203     0.7981908480    -0.4513132528
    6      C       3.9792179801     1.4351384648    -1.2829051477
    7      C       4.3638130432     2.7039795526    -1.2275745838
    8      C       2.8378374612    -0.5868316311    -0.4985722311
    9      C       1.9009287855    -1.2562753238     0.2856849068
   10      O       1.8951834781    -2.6159429817     0.1509443632
   11      C       0.7868104328    -3.3874380975     0.5645041542
   12      C      -0.2871327768    -3.4990863889    -0.5260150289
   13      C      -1.0638722402    -2.2063099269    -0.7905803008
   14      C      -2.1021515542    -1.9026624515     0.2916651479
   15      C      -2.5172827894    -0.4314092223     0.3248045059
   16      C      -3.1901783112     0.0258272952    -0.9756133070
   17      C      -3.6372709805     1.4672651790    -0.8356342014
   18      O      -3.0749207785     2.3994298913    -1.3286057433
   19      O      -4.7324516781     1.6485211869    -0.0716511865
   20      C       1.0947026292    -0.5221146894     1.1444823536
   21      H      -0.8709367954     3.3154745866     2.5115247579
   22      H       0.1536941545     3.4359711512     1.0039115073
   23      H      -0.1451047543     1.0323094252     2.8723707581
   24      H       2.1674394745     2.5959284506     0.4076254820
   25      H       4.4581541452     0.7716912484    -1.9926789708
   26      H       3.9424953589     3.4108418240    -0.5336592357
   27      H       5.1307594028     3.0855307646    -1.8796948146
   28      H       3.4732416376    -1.1751937721    -1.1427952753
   29      H       0.3637700257    -3.0199286241     1.5036535962
   30      H       1.2019120629    -4.3830398007     0.7513061474
   31      H      -0.9815229840    -4.2930354115    -0.2425036204
   32      H       0.2165567585    -3.8031872592    -1.4455550479
   33      H      -1.5680053908    -2.3010424959    -1.7541196020
   34      H      -0.3615666335    -1.3751800596    -0.8696391307
   35      H      -1.6959484913    -2.1575923017     1.2721222496
   36      H      -2.9824081140    -2.5318952862     0.1365187901
   37      H      -1.6371208521     0.1915134324     0.4967691460
   38      H      -3.1992224003    -0.2783653000     1.1671869524
   39      H      -4.0487091477    -0.6131225787    -1.2012343101
   40      H      -2.4796582557    -0.0300644782    -1.7988619478
   41      H      -5.0880320793     0.8149883688     0.2632811847
   42      H       0.3763752265    -1.0056588626     1.7882073623
 ----------------------------------------------------------------

    9    -886.6838496409      3.36e-06  Convergence criterion met
 Total energy in the final basis set =     -886.6838496409

                    Orbital Energies (a.u.)
 --------------------------------------------------------------

 Alpha MOs
 -- Occupied --
-19.1911 -19.1751 -19.1251 -10.3104 -10.2472 -10.2438 -10.2011 -10.1970
-10.1965 -10.1948 -10.1915 -10.1899 -10.1899 -10.1877 -10.1851 -10.1843
-10.1804 -10.1793 -10.1778 -10.1775  -1.0994  -1.0653  -1.0158  -0.8658
 -0.8266  -0.8038  -0.7944  -0.7750  -0.7404  -0.7268  -0.7158  -0.6791
 -0.6338  -0.6273  -0.6196  -0.6087  -0.5839  -0.5577  -0.5509  -0.5213
 -0.5148  -0.4967  -0.4922  -0.4886  -0.4775  -0.4696  -0.4532  -0.4443
 -0.4424  -0.4390  -0.4242  -0.4222  -0.4189  -0.4104  -0.3945  -0.3914
 -0.3832  -0.3743  -0.3698  -0.3658  -0.3625  -0.3575  -0.3464  -0.3432
 -0.3391  -0.3290  -0.3251  -0.3153  -0.3103  -0.3087  -0.2613  -0.2591
 -0.2214  -0.2132

          Ground-State Mulliken Net Atomic Charges

     Atom                 Charge (a.u.)
  ----------------------------------------
      1 C                    -0.335298
      2 C                    -0.133611
      3 C                     0.177948
      4 C                    -0.251649
      5 C                     0.186705
      6 C                    -0.114467
      7 C                    -0.349017
      8 C                    -0.259795
      9 C                     0.388205
     10 O                    -0.527994
     11 C                    -0.048871
     12 C                    -0.272378
     13 C                    -0.277424
     14 C                    -0.259800
     15 C                    -0.290199
     16 C                    -0.373827
     17 C                     0.589160
     18 O                    -0.434370
     19 O                    -0.562201
     20 C                    -0.267189
     21 H                     0.146684
     22 H                     0.156243
     23 H                     0.126771
     24 H                     0.125636
     25 H                     0.128512
     26 H                     0.145985
     27 H                     0.144550
     28 H                     0.133462
     29 H                     0.138431
     30 H                     0.152593
     31 H                     0.132405
     32 H                     0.150252
     33 H                     0.138707
     34 H                     0.168171
     35 H                     0.131282
     36 H                     0.130066
     37 H                     0.185284
     38 H                     0.121543
     39 H                     0.139779
     40 H                     0.184336
     41 H                     0.409321
     42 H                     0.126061
  ----------------------------------------
  Sum of atomic charges =     0.000000

                    Cartesian Multipole Moments
 -----------------------------------------------------------------
    Charge (ESU x 10^10)
                -0.0000
    Dipole Moment (Debye)
         X      -1.4956      Y      -4.2055      Z       1.4758
       Tot       4.7012
    Quadrupole Moments (Debye-Ang)
        XX    -114.9046     XY      17.4074     YY    -121.9389
        XZ      -8.8847     YZ       3.8889     ZZ    -118.5874

 Total job time:  95.33s(wall), 95.07s(cpu)
        *  Thank you very much for using Q-Chem.  Have a nice day.  *
