 Q-Chem 5.2, Q-Chem, Inc., Pleasanton, CA (2019)
 Q-Chem 5.2.1 for Intel X86 EM64T Linux

User input:
--------------------------------------------------------------
$molecule
0 1
C         1.22887794880000   -3.93127969260000   -0.09343417080000
C         0.10470154540000   -3.24168469220000    0.05709469120000
C        -0.02933174500000   -1.78871228260000    0.04282192940000
C         1.06993502570000   -0.93166768830000    0.03898752740000
C         0.91530541220000    0.45200210080000    0.01922500960000
C         2.03383605480000    1.38309838310000    0.01238131930000
C         3.33086161210000    1.11117235300000   -0.00063417570000
F         3.91457960380000   -0.07954164190000   -0.00994426350000
F         4.26888218880000    2.05090850370000   -0.00800574110000
C        -0.37431036510000    0.98956299060000    0.00625529820000
C        -1.46909841360000    0.14341752430000    0.01765199150000
C        -2.86616219830000    0.69698948170000   -0.00761617190000
F        -2.91589581020000    2.02549825220000    0.15805659880000
F        -3.48960561750000    0.43739243170000   -1.17333650310000
F        -3.64216075820000    0.16367577230000    0.95270654640000
C        -1.30912317070000   -1.23387282440000    0.03619357940000
H         1.22706828510000   -5.00723803260000   -0.07391307400000
H         2.18695510270000   -3.46568848380000   -0.24818241630000
H        -0.82732232760000   -3.77535761410000    0.19220651270000
H         2.05814395960000   -1.35706495840000    0.05962833920000
H         1.78512332330000    2.43428993550000    0.01502698890000
H        -0.51787792880000    2.05880345550000   -0.00784320930000
H        -2.17964288290000   -1.87278594640000    0.04449855130000
$end

$rem
BASIS = 6-31G*
GUI = 2
METHOD = B3LYP
PRINT_ORBITALS false
MOLDEN_FORMAT false
--------------------------------------------------------------

             Standard Nuclear Orientation (Angstroms)
    I     Atom           X                Y                Z
 ----------------------------------------------------------------
    1      C       1.2313080069    -3.8578495414    -0.0907360336
    2      C       0.1024652924    -3.1757007413     0.0587963355
    3      C      -0.0412777369    -1.7236663768     0.0435778126
    4      C       1.0522327726    -0.8592891325     0.0397939244
    5      C       0.8883603652     0.5233030891     0.0191168227
    6      C       2.0006404832     1.4618574244     0.0122889186
    7      C       3.2994627605     1.1986070464     0.0001071409
    8      F       3.8911381661     0.0118195029    -0.0081832209
    9      F       4.2311793516     2.1445930951    -0.0073470490
   10      C      -0.4048158382     1.0522163204     0.0051569732
   11      C      -1.4939245748     0.1987724578     0.0164988873
   12      C      -2.8946470792     0.7429701729    -0.0098245458
   13      F      -2.9533533147     2.0712156209     0.1550210191
   14      F      -3.5157332343     0.4785088104    -1.1757097853
   15      F      -3.6675600607     0.2050529534     0.9504189591
   16      C      -1.3247487007    -1.1774054365     0.0359539708
   17      H       1.2366862378    -4.9337840063    -0.0705667627
   18      H       2.1863293718    -3.3859519561    -0.2452704551
   19      H      -0.8260377036    -3.7155159813     0.1937488636
   20      H       2.0432545676    -1.2780531369     0.0612015864
   21      H       1.7448996493     2.5113629184     0.0141720023
   22      H      -0.5555259036     2.1204637156    -0.0096607166
   23      H      -2.1909788967    -1.8221230906     0.0441949346
 ----------------------------------------------------------------

    9    -922.5527957697      5.29e-06  Convergence criterion met
 Total energy in the final basis set =     -922.5527957697

                    Orbital Energies (a.u.)
 --------------------------------------------------------------

 Alpha MOs
 -- Occupied --
-24.7559 -24.7451 -24.7256 -24.7195 -24.7166 -10.4296 -10.3687 -10.2230
-10.2181 -10.2137 -10.2130 -10.2097 -10.2070 -10.2030 -10.2014 -10.1917
 -1.3052  -1.2979  -1.2364  -1.2159  -1.2094  -0.8915  -0.8288  -0.8131
 -0.7660  -0.7459  -0.6993  -0.6605  -0.6454  -0.6251  -0.5988  -0.5841
 -0.5788  -0.5736  -0.5544  -0.5307  -0.5189  -0.5120  -0.4836  -0.4754
 -0.4564  -0.4549  -0.4519  -0.4488  -0.4415  -0.4296  -0.4215  -0.4191
 -0.4089  -0.4026  -0.3960  -0.3940  -0.3891  -0.3593  -0.3563  -0.3312
 -0.3015  -0.2464  -0.2336

          Ground-State Mulliken Net Atomic Charges

     Atom                 Charge (a.u.)
  ----------------------------------------
      1 C                    -0.349603
      2 C                    -0.112382
      3 C                     0.175117
      4 C                    -0.247692
      5 C                     0.197689
      6 C                    -0.300134
      7 C                     0.551205
      8 F                    -0.230694
      9 F                    -0.241922
     10 C                    -0.236284
     11 C                    -0.006490
     12 C                     0.779887
     13 F                    -0.266647
     14 F                    -0.263902
     15 F                    -0.266691
     16 C                    -0.232279
     17 H                     0.151264
     18 H                     0.150565
     19 H                     0.134836
     20 H                     0.143510
     21 H                     0.165669
     22 H                     0.152544
     23 H                     0.152433
  ----------------------------------------
  Sum of atomic charges =     0.000000

                    Cartesian Multipole Moments
 -----------------------------------------------------------------
    Charge (ESU x 10^10)
                 0.0000
    Dipole Moment (Debye)
         X       1.6104      Y      -0.8521      Z       0.0612
       Tot       1.8230
    Quadrupole Moments (Debye-Ang)
        XX     -94.8475     XY       1.7621     YY     -79.2728
        XZ      -0.5007     YZ      -0.0537     ZZ     -90.0711

 Total job time:  38.54s(wall), 38.41s(cpu)
        *  Thank you very much for using Q-Chem.  Have a nice day.  *
