 Q-Chem 5.2, Q-Chem, Inc., Pleasanton, CA (2019)
 Q-Chem 5.2.1 for Intel X86 EM64T Linux

User input:
--------------------------------------------------------------
$molecule
0 1
C         2.98858531330000    0.60851342460000   -0.07434991760000
C         2.31234685110000   -0.49413482240000    0.22369277030000
C         0.88093767540000   -0.65032430940000    0.12350726310000
N         0.31500613610000   -1.87408670780000    0.02182554180000
N        -0.95090097190000   -1.75403099550000   -0.07652160140000
N        -1.27343277640000   -0.46430130760000   -0.05221466090000
C        -2.64895083240000   -0.07008471790000   -0.09975917320000
C        -0.15232588420000    0.29585914870000    0.08163698730000
C        -0.10442761930000    1.72854354360000    0.23368108710000
C        -0.92899619750000    2.60925319590000   -0.32243636690000
H         4.05983027810000    0.64980687480000    0.02255094700000
H         2.50741612220000    1.49839595310000   -0.44383045600000
H         2.82679536420000   -1.39119918270000    0.53982942040000
H        -3.24686233880000   -0.93321533040000    0.18914079010000
H        -2.93312632260000    0.23132753790000   -1.11030563880000
H        -2.82648294070000    0.75653059890000    0.58855365570000
H         0.70860255220000    2.07220290200000    0.86122443250000
H        -1.72111767060000    2.32705854230000   -0.99371885460000
H        -0.81217328440000    3.66445267620000   -0.14558747790000
$end

$rem
BASIS = 6-31G*
GUI = 2
METHOD = B3LYP
PRINT_ORBITALS false
MOLDEN_FORMAT false
--------------------------------------------------------------

             Standard Nuclear Orientation (Angstroms)
    I     Atom           X                Y                Z
 ----------------------------------------------------------------
    1      C       2.9439358698    -0.7690929576     0.1948668197
    2      C       2.3647889811     0.3899461469    -0.0935396535
    3      C       0.9450773243     0.6476843471    -0.0567381370
    4      N       0.4641688211     1.9056292047     0.0637352375
    5      N      -0.8104550746     1.8759012374     0.0962392870
    6      N      -1.2232374333     0.6150383981     0.0076058559
    7      C      -2.6241742552     0.3218727955    -0.0262626109
    8      C      -0.1543380308    -0.2206525786    -0.1006323328
    9      C      -0.2019077444    -1.6469266468    -0.3042880037
   10      C      -1.1149102441    -2.4829842016     0.1776493937
   11      H       4.0129786490    -0.8858836909     0.1483032936
   12      H       2.3818388595    -1.6332146321     0.5067502209
   13      H       2.9578367660     1.2569478465    -0.3503012132
   14      H      -3.1429874940     1.2361008039    -0.3108250548
   15      H      -2.9803623756     0.0078202423     0.9572566990
   16      H      -2.8254166323    -0.4653714212    -0.7531278878
   17      H       0.6151950770    -2.0278949119    -0.9044018470
   18      H      -1.9178321126    -2.1663150791     0.8201037259
   19      H      -1.0654163342    -3.5372524684    -0.0331534535
 ----------------------------------------------------------------

    9    -436.3374413454      2.92e-06  Convergence criterion met
 Total energy in the final basis set =     -436.3374413454

                    Orbital Energies (a.u.)
 --------------------------------------------------------------

 Alpha MOs
 -- Occupied --
-14.4256 -14.3801 -14.3423 -10.2401 -10.2353 -10.2145 -10.2116 -10.2010
-10.1941 -10.1826  -1.1074  -0.9281  -0.8413  -0.7887  -0.7564  -0.7412
 -0.6501  -0.6293  -0.5823  -0.5621  -0.5141  -0.5025  -0.4905  -0.4650
 -0.4442  -0.4295  -0.4263  -0.4235  -0.3856  -0.3647  -0.3260  -0.3219
 -0.3142  -0.2708  -0.2547  -0.2215

          Ground-State Mulliken Net Atomic Charges

     Atom                 Charge (a.u.)
  ----------------------------------------
      1 C                    -0.362766
      2 C                    -0.083239
      3 C                     0.183727
      4 N                    -0.341151
      5 N                    -0.072345
      6 N                    -0.305130
      7 C                    -0.331072
      8 C                     0.295319
      9 C                    -0.104826
     10 C                    -0.352303
     11 H                     0.146829
     12 H                     0.146299
     13 H                     0.150808
     14 H                     0.200648
     15 H                     0.179845
     16 H                     0.184396
     17 H                     0.159594
     18 H                     0.150315
     19 H                     0.155051
  ----------------------------------------
  Sum of atomic charges =     0.000000

                    Cartesian Multipole Moments
 -----------------------------------------------------------------
    Charge (ESU x 10^10)
                -0.0000
    Dipole Moment (Debye)
         X      -1.8153      Y      -3.8675      Z      -0.4062
       Tot       4.2916
    Quadrupole Moments (Debye-Ang)
        XX     -48.9653     XY       0.3662     YY     -64.4118
        XZ      -1.2073     YZ      -0.7908     ZZ     -59.8618

 Total job time:  19.18s(wall), 19.09s(cpu)
        *  Thank you very much for using Q-Chem.  Have a nice day.  *
