 Q-Chem 5.2, Q-Chem, Inc., Pleasanton, CA (2019)
 Q-Chem 5.2.1 for Intel X86 EM64T Linux

User input:
--------------------------------------------------------------
$molecule
0 1
C         3.66653193870000    0.17116704110000    0.60776540610000
C         2.73325746560000    0.80434459720000   -0.09343578440000
C         1.32068801860000    0.49320287180000   -0.10270247270000
S         0.24124388880000    1.85472937070000   -0.36236695390000
C        -1.15287559400000    0.84798726860000   -0.12444077870000
C        -2.48038650740000    1.24487135790000   -0.17309075440000
C        -3.45622428790000    0.29308323890000    0.03664322370000
C        -3.11148088110000   -1.03489164600000    0.28626503160000
C        -1.79302613350000   -1.42889249100000    0.33064360410000
C        -0.78265136950000   -0.48466399340000    0.13264425620000
C         0.64179747270000   -0.67329853310000    0.12959270210000
C         1.21797819480000   -2.00393489730000    0.29322983950000
C         2.18239183900000   -2.51257027870000   -0.45901615940000
H         4.69372024970000    0.49072033600000    0.58308944930000
H         3.43774170380000   -0.68038622080000    1.22456999710000
H         2.99905421840000    1.68168850030000   -0.67098054470000
H        -2.73424892370000    2.27450624640000   -0.37242800550000
H        -4.49700371300000    0.57790186440000    0.00432845890000
H        -3.89303259210000   -1.76331849420000    0.44396401960000
H        -1.53650805470000   -2.46088199890000    0.51619812150000
H         0.74855795100000   -2.61207298790000    1.05724359490000
H         2.64890240420000   -1.94129074930000   -1.24378969560000
H         2.54285054060000   -3.51642350280000   -0.31310312570000
$end

$rem
BASIS = 6-31G*
GUI = 2
METHOD = B3LYP
PRINT_ORBITALS false
MOLDEN_FORMAT false
--------------------------------------------------------------

             Standard Nuclear Orientation (Angstroms)
    I     Atom           X                Y                Z
 ----------------------------------------------------------------
    1      C       3.6125769038     0.4726335348     0.6425754016
    2      C       2.6250634355     1.0872521985     0.0017484222
    3      C       1.2456417057     0.6547715569    -0.0472788509
    4      S       0.0490364276     1.9344496279    -0.1774307708
    5      C      -1.2496882567     0.7896250157    -0.0493743030
    6      C      -2.6072882473     1.0703153092    -0.0668170743
    7      C      -3.4943264062     0.0197795526     0.0412859675
    8      C      -3.0325247934    -1.2906759253     0.1601222806
    9      C      -1.6842116938    -1.5688857414     0.1735434839
   10      C      -0.7620728427    -0.5239515389     0.0765856943
   11      C       0.6734811779    -0.5845269026     0.0638544377
   12      C       1.3658277229    -1.8685915284     0.0983329708
   13      C       2.3696682484    -2.2125940012    -0.6945378695
   14      H       4.6073065955     0.8827135546     0.6562229403
   15      H       3.4617684724    -0.4528870557     1.1704051908
   16      H       2.8105431286     2.0377083628    -0.4842233377
   17      H      -2.9519783312     2.0881313336    -0.1646370944
   18      H      -4.5563447733     0.2131565261     0.0307960157
   19      H      -3.7459860650    -2.0974699841     0.2398347749
   20      H      -1.3367021055    -2.5874308343     0.2574322665
   21      H       0.9541162750    -2.5887878067     0.7952657690
   22      H       2.7816988623    -1.5271231687    -1.4158023303
   23      H       2.8181133749    -3.1901141534    -0.6466452275
 ----------------------------------------------------------------

    9    -861.4430055916      4.82e-06  Convergence criterion met
 Total energy in the final basis set =     -861.4430055916

                    Orbital Energies (a.u.)
 --------------------------------------------------------------

 Alpha MOs
 -- Occupied --
-88.9002 -10.2223 -10.2164 -10.1985 -10.1968 -10.1952 -10.1933 -10.1932
-10.1888 -10.1882 -10.1860 -10.1827 -10.1808  -7.9621  -5.9262  -5.9228
 -5.9187  -0.8980  -0.8389  -0.7967  -0.7826  -0.7557  -0.7190  -0.7010
 -0.6317  -0.6097  -0.5878  -0.5731  -0.5276  -0.4952  -0.4857  -0.4698
 -0.4557  -0.4469  -0.4346  -0.4168  -0.4045  -0.3942  -0.3838  -0.3655
 -0.3606  -0.3437  -0.3378  -0.3332  -0.2958  -0.2861  -0.2587  -0.2266
 -0.2013

          Ground-State Mulliken Net Atomic Charges

     Atom                 Charge (a.u.)
  ----------------------------------------
      1 C                    -0.322351
      2 C                    -0.106665
      3 C                    -0.222479
      4 S                     0.218808
      5 C                    -0.140316
      6 C                    -0.177746
      7 C                    -0.117497
      8 C                    -0.141928
      9 C                    -0.175590
     10 C                     0.114320
     11 C                     0.131385
     12 C                    -0.143730
     13 C                    -0.318175
     14 H                     0.144872
     15 H                     0.157904
     16 H                     0.139404
     17 H                     0.138876
     18 H                     0.129579
     19 H                     0.128506
     20 H                     0.129087
     21 H                     0.137226
     22 H                     0.154627
     23 H                     0.141884
  ----------------------------------------
  Sum of atomic charges =     0.000000

                    Cartesian Multipole Moments
 -----------------------------------------------------------------
    Charge (ESU x 10^10)
                -0.0000
    Dipole Moment (Debye)
         X       0.1897      Y      -0.7233      Z       0.0895
       Tot       0.7531
    Quadrupole Moments (Debye-Ang)
        XX     -72.1657     XY      -0.5362     YY     -77.1728
        XZ      -0.5266     YZ      -2.1767     ZZ     -85.9170

 Total job time:  36.42s(wall), 36.30s(cpu)
        *  Thank you very much for using Q-Chem.  Have a nice day.  *
