 Q-Chem 5.2, Q-Chem, Inc., Pleasanton, CA (2019)
 Q-Chem 5.2.1 for Intel X86 EM64T Linux

User input:
--------------------------------------------------------------
$molecule
0 1
C        -3.95617421800000   -2.21339227470000   -0.13759456030000
C        -2.63536333860000   -2.30559588500000   -0.02282479640000
C        -1.75538296770000   -1.16673794100000    0.00594273810000
N        -0.46166440150000   -1.21014336620000    0.11722409790000
C        -0.03599515990000    0.08574145530000    0.10108534800000
C         1.39840328970000    0.38867973790000    0.20964873770000
O         1.88342006300000    1.49777526430000    0.19010111630000
O         2.10699010230000   -0.72837265360000    0.34566461570000
C         3.52217649250000   -0.58905366580000    0.44486177980000
C         4.16591105020000   -0.45918390530000   -0.92890552690000
C        -1.15052810250000    0.91033533880000   -0.02713747690000
C        -1.41401016070000    2.32243608120000   -0.10650228100000
C        -0.50757840070000    3.29504337680000   -0.07302357520000
O        -2.22980765210000    0.09633803940000   -0.08506839520000
H        -4.58183687020000   -3.08796529180000   -0.15526541620000
H        -4.44761279800000   -1.25824110320000   -0.21707274460000
H        -2.12496912110000   -3.25306003430000    0.05809355380000
H         3.85916977640000   -1.49495480380000    0.95260633940000
H         3.75367728860000    0.29114475520000    1.05471129000000
H         3.89034804480000   -1.30635080770000   -1.55211353290000
H         5.24676561640000   -0.42907105860000   -0.82453590670000
H         3.83249924120000    0.45714418250000   -1.40987649260000
H        -2.46925260550000    2.54739944630000   -0.20182959800000
H         0.54280216260000    3.08502514750000    0.02081335430000
H        -0.80810619610000    4.32646237650000   -0.13999204440000
$end

$rem
BASIS = 6-31G*
GUI = 2
METHOD = B3LYP
PRINT_ORBITALS false
MOLDEN_FORMAT false
--------------------------------------------------------------

             Standard Nuclear Orientation (Angstroms)
    I     Atom           X                Y                Z
 ----------------------------------------------------------------
    1      C       4.3249442745     1.4481166092    -0.1461882218
    2      C       3.0437675902     1.7795363076    -0.0238678612
    3      C       1.9709221729     0.8203018896     0.0087278864
    4      N       0.7074596982     1.0988064307     0.1273579677
    5      C       0.0523979829    -0.0976217476     0.1123247826
    6      C      -1.4125919883    -0.1339722427     0.2286843567
    7      O      -2.0919391408    -1.1359116629     0.2107647836
    8      O      -1.9047149555     1.0933408380     0.3698198321
    9      C      -3.3210106002     1.2143761069     0.4768688258
   10      C      -3.9850033046     1.2069123217    -0.8933701784
   11      C       0.9970523242    -1.1114710965    -0.0230174465
   12      C       0.9980167993    -2.5477793055    -0.1052845258
   13      C      -0.0704747170    -3.3387374010    -0.0676616443
   14      O       2.2064146053    -0.5079486708    -0.0862273806
   15      H       5.0995811580     2.1938836353    -0.1665159669
   16      H       4.6334132703     0.4194935481    -0.2293981793
   17      H       2.7152665622     2.8040571492     0.0608815967
   18      H      -3.4843160742     2.1655324315     0.9874164253
   19      H      -3.7059549592     0.3899653631     1.0871335800
   20      H      -3.5628360691     1.9908334384    -1.5172751850
   21      H      -5.0526304274     1.3743075957    -0.7829276896
   22      H      -3.8269779328     0.2461036021    -1.3771348473
   23      H       1.9939673166    -2.9613133955    -0.2067958744
   24      H      -1.0643800692    -2.9407816307     0.0323169008
   25      H       0.0364420625    -4.4075394362    -0.1373602568
 ----------------------------------------------------------------

    9    -668.0757636538      7.74e-06  Convergence criterion met
 Total energy in the final basis set =     -668.0757636538

                    Orbital Energies (a.u.)
 --------------------------------------------------------------

 Alpha MOs
 -- Occupied --
-19.2380 -19.1866 -19.1341 -14.3326 -10.3177 -10.2805 -10.2703 -10.2390
-10.2276 -10.2088 -10.2049 -10.1982 -10.1879 -10.1768  -1.1537  -1.1088
 -1.0171  -0.9353  -0.8351  -0.7940  -0.7761  -0.7377  -0.6881  -0.6497
 -0.6381  -0.5917  -0.5803  -0.5443  -0.5245  -0.5004  -0.4951  -0.4852
 -0.4768  -0.4592  -0.4513  -0.4359  -0.4312  -0.4098  -0.4044  -0.3855
 -0.3833  -0.3784  -0.3650  -0.3447  -0.3379  -0.3186  -0.2972  -0.2907
 -0.2895  -0.2735  -0.2183

          Ground-State Mulliken Net Atomic Charges

     Atom                 Charge (a.u.)
  ----------------------------------------
      1 C                    -0.342830
      2 C                    -0.099605
      3 C                     0.500467
      4 N                    -0.489458
      5 C                     0.122800
      6 C                     0.594396
      7 O                    -0.506653
      8 O                    -0.435352
      9 C                    -0.042641
     10 C                    -0.466069
     11 C                     0.327525
     12 C                    -0.136340
     13 C                    -0.351988
     14 O                    -0.478723
     15 H                     0.156252
     16 H                     0.163487
     17 H                     0.166157
     18 H                     0.154925
     19 H                     0.164631
     20 H                     0.161067
     21 H                     0.150149
     22 H                     0.175855
     23 H                     0.147266
     24 H                     0.216873
     25 H                     0.147808
  ----------------------------------------
  Sum of atomic charges =     0.000000

                    Cartesian Multipole Moments
 -----------------------------------------------------------------
    Charge (ESU x 10^10)
                 0.0000
    Dipole Moment (Debye)
         X       1.0689      Y       0.1470      Z      -0.2154
       Tot       1.1002
    Quadrupole Moments (Debye-Ang)
        XX     -67.4181     XY      -3.1327     YY     -75.8828
        XZ      -0.8356     YZ       0.4377     ZZ     -81.7587

 Total job time:  34.67s(wall), 34.17s(cpu)
        *  Thank you very much for using Q-Chem.  Have a nice day.  *
