 Q-Chem 5.2, Q-Chem, Inc., Pleasanton, CA (2019)
 Q-Chem 5.2.1 for Intel X86 EM64T Linux

User input:
--------------------------------------------------------------
$molecule
0 1
C        -3.18333987220000   -0.71198013780000    0.05825330710000
C        -2.53451787940000    0.32809801570000    0.56250688700000
C        -1.16059752640000    0.73267744280000    0.25591038260000
C        -0.91974598450000    2.09620842150000    0.11143759540000
C         0.32968858050000    2.55844997610000   -0.25317586430000
C         1.37081929550000    1.66503227110000   -0.39751637700000
C         1.17006443050000    0.30031209760000   -0.19957983820000
O         2.30401938910000   -0.46395513980000   -0.30480003470000
C         2.52715451120000   -1.51394887650000    0.60981599620000
C        -0.11391093770000   -0.19058289210000    0.08017483090000
C        -0.39139480360000   -1.62808525540000    0.18234622940000
C        -0.01638984160000   -2.51704739920000   -0.72640416500000
H        -4.20817523180000   -0.91395954200000    0.32211020450000
H        -2.73057877510000   -1.38294458870000   -0.65091950300000
H        -3.05887922640000    1.00550045690000    1.22717452660000
H        -1.73424071080000    2.79132791240000    0.25474150720000
H         0.49942945670000    3.61476680390000   -0.39783774340000
H         2.36632572620000    1.99853216470000   -0.64554994530000
H         3.58656325850000   -1.47345446020000    0.87288948280000
H         2.30647074850000   -2.48617582720000    0.15967887120000
H         1.92611457710000   -1.39877163490000    1.51424624070000
H        -0.97798337740000   -1.93729032590000    1.03978477780000
H         0.52690841040000   -2.22566306080000   -1.61064369190000
H        -0.25286626560000   -3.56360177350000   -0.62891472160000
$end

$rem
BASIS = 6-31G*
GUI = 2
METHOD = B3LYP
PRINT_ORBITALS false
MOLDEN_FORMAT false
--------------------------------------------------------------

             Standard Nuclear Orientation (Angstroms)
    I     Atom           X                Y                Z
 ----------------------------------------------------------------
    1      C       2.8463540545    -1.5530224996     0.1361033121
    2      C       2.5486568339    -0.3833468141    -0.4118377177
    3      C       1.3330944752     0.4022828383    -0.1870327641
    4      C       1.4839687916     1.7809708851    -0.0663895230
    5      C       0.4009367051     2.5878046760     0.2230196948
    6      C      -0.8578847404     2.0309943917     0.3141976569
    7      C      -1.0446583461     0.6613310835     0.1379007948
    8      O      -2.3534125023     0.2537948647     0.1837956431
    9      C      -2.8183663644    -0.7102843007    -0.7344460913
   10      C       0.0587913067    -0.1808211465    -0.0646129017
   11      C      -0.0803527250    -1.6398428942    -0.1404008498
   12      C      -0.7406323940    -2.3641154515     0.7518825779
   13      H       3.7833876188    -2.0442000985    -0.0674066924
   14      H       2.1843483512    -2.0508739113     0.8231290762
   15      H       3.2786794451     0.1013426120    -1.0503947693
   16      H       2.4692763950     2.2122107370    -0.1680256083
   17      H       0.5322161535     3.6518317206     0.3501276008
   18      H      -1.7284995434     2.6395155028     0.5026328064
   19      H      -3.8068325822    -0.3762614802    -1.0577998337
   20      H      -2.9081961699    -1.6944157858    -0.2654409484
   21      H      -2.1627330618    -0.7918108941    -1.6039328673
   22      H       0.4379161939    -2.1229066106    -0.9607310080
   23      H      -1.2239659361    -1.9098225066     1.6015672086
   24      H      -0.8077424291    -3.4366728096     0.6756047581
 ----------------------------------------------------------------

    9    -501.5491887854      2.63e-06  Convergence criterion met
 Total energy in the final basis set =     -501.5491887854

                    Orbital Energies (a.u.)
 --------------------------------------------------------------

 Alpha MOs
 -- Occupied --
-19.1648 -10.2417 -10.2274 -10.1941 -10.1928 -10.1884 -10.1883 -10.1844
-10.1785 -10.1783 -10.1768 -10.1760  -1.0537  -0.8626  -0.7968  -0.7819
 -0.7426  -0.7204  -0.6841  -0.6267  -0.6050  -0.5664  -0.5554  -0.5111
 -0.4912  -0.4762  -0.4624  -0.4566  -0.4495  -0.4373  -0.4210  -0.4103
 -0.3780  -0.3756  -0.3656  -0.3578  -0.3413  -0.3342  -0.3015  -0.2809
 -0.2691  -0.2218  -0.2152

          Ground-State Mulliken Net Atomic Charges

     Atom                 Charge (a.u.)
  ----------------------------------------
      1 C                    -0.339381
      2 C                    -0.143968
      3 C                     0.101553
      4 C                    -0.191061
      5 C                    -0.127974
      6 C                    -0.168212
      7 C                     0.296618
      8 O                    -0.517280
      9 C                    -0.202135
     10 C                     0.062814
     11 C                    -0.160161
     12 C                    -0.336182
     13 H                     0.140149
     14 H                     0.163023
     15 H                     0.134341
     16 H                     0.123461
     17 H                     0.129841
     18 H                     0.135157
     19 H                     0.151353
     20 H                     0.154968
     21 H                     0.147873
     22 H                     0.148940
     23 H                     0.156515
     24 H                     0.139746
  ----------------------------------------
  Sum of atomic charges =     0.000000

                    Cartesian Multipole Moments
 -----------------------------------------------------------------
    Charge (ESU x 10^10)
                 0.0000
    Dipole Moment (Debye)
         X       0.1767      Y      -0.6648      Z      -0.9827
       Tot       1.1995
    Quadrupole Moments (Debye-Ang)
        XX     -67.2279     XY       2.1141     YY     -64.6847
        XZ       0.4120     YZ       0.3670     ZZ     -71.8486

 Total job time:  35.51s(wall), 35.38s(cpu)
        *  Thank you very much for using Q-Chem.  Have a nice day.  *
