 Q-Chem 5.2, Q-Chem, Inc., Pleasanton, CA (2019)
 Q-Chem 5.2.1 for Intel X86 EM64T Linux

User input:
--------------------------------------------------------------
$molecule
0 1
C        -3.80731648590000   -1.46429504520000   -0.00018849480000
C        -3.14274831340000   -0.31619217600000   -0.00001430880000
C        -1.69386877820000   -0.15449881380000    0.00049315760000
C        -0.78392233100000   -1.23806697620000    0.00108968490000
C         0.57901995760000   -1.02633459070000    0.00067425090000
C         1.50926280660000   -2.14038758410000    0.00074291020000
C         2.83198352730000   -2.01533647460000    0.00091928270000
C         1.00118514430000    0.32486875830000   -0.00007156420000
N         2.19748521920000    0.88383367660000   -0.00070333050000
C         1.98596412530000    2.21311504650000   -0.00131369770000
C         0.64273404340000    2.50559194800000   -0.00105388030000
N         0.01118373850000    1.30792443350000   -0.00025407830000
N        -1.28998704490000    1.09713131510000   -0.00012150370000
H        -4.88335773560000   -1.48310182050000   -0.00105374690000
H        -3.32080884270000   -2.42485292550000    0.00071203890000
H        -3.67470265080000    0.62515252570000   -0.00088640570000
H        -1.16245922360000   -2.24725998750000    0.00182808430000
H         1.04422550570000   -3.11894780580000    0.00059194090000
H         3.29204523740000   -1.04221220650000    0.00085258940000
H         3.47604626450000   -2.87845857920000    0.00107655680000
H         2.81301696040000    2.89564897810000   -0.00195036890000
H         0.10865096530000    3.43171638840000   -0.00139901770000
$end

$rem
BASIS = 6-31G*
GUI = 2
METHOD = B3LYP
PRINT_ORBITALS false
MOLDEN_FORMAT false
--------------------------------------------------------------

             Standard Nuclear Orientation (Angstroms)
    I     Atom           X                Y                Z
 ----------------------------------------------------------------
    1      C       4.0164079103    -0.5589366040     0.0006786938
    2      C       3.1152525686     0.4145672384     0.0000434689
    3      C       1.6663457179     0.2531189169    -0.0004911360
    4      C       1.0174481554    -1.0042810968    -0.0006096758
    5      C      -0.3586555014    -1.0979883553    -0.0002446784
    6      C      -1.0206355056    -2.3895951571     0.0001779494
    7      C      -2.3384108293    -2.5589943174    -0.0000137738
    8      C      -1.0681029420     0.1270254336    -0.0000514981
    9      N      -2.3581487979     0.4087301575     0.0003801434
   10      C      -2.4446472740     1.7519533397     0.0004293626
   11      C      -1.1988424042     2.3331416989     0.0000099198
   12      N      -0.3189753340     1.3040169540    -0.0003072190
   13      N       0.9966673030     1.3850330576    -0.0003880269
   14      H       5.0701591246    -0.3402430236     0.0015217962
   15      H       3.7534498526    -1.6030701028     0.0001929579
   16      H       3.4267733432     1.4499708393     0.0005075262
   17      H       1.6089985633    -1.9052967826    -0.0009370839
   18      H      -0.3514576310    -3.2416752559     0.0007247024
   19      H      -3.0015378817    -1.7111204894    -0.0003407323
   20      H      -2.7765175445    -3.5427925989     0.0002074436
   21      H      -3.4017370790     2.2355320096     0.0008039970
   22      H      -0.8818923201     3.3541676406    -0.0000466841
 ----------------------------------------------------------------

    9    -550.6683742417      6.71e-06  Convergence criterion met
 Total energy in the final basis set =     -550.6683742417

                    Orbital Energies (a.u.)
 --------------------------------------------------------------

 Alpha MOs
 -- Occupied --
-14.4402 -14.3736 -14.3153 -10.2485 -10.2422 -10.2247 -10.2138 -10.2094
-10.2054 -10.2009 -10.1969 -10.1947 -10.1830  -1.0823  -0.9654  -0.8715
 -0.8318  -0.7896  -0.7630  -0.7421  -0.6770  -0.6463  -0.6226  -0.5934
 -0.5754  -0.5338  -0.5049  -0.4883  -0.4861  -0.4698  -0.4547  -0.4447
 -0.4260  -0.4196  -0.3988  -0.3820  -0.3725  -0.3648  -0.3588  -0.3102
 -0.3078  -0.2615  -0.2604  -0.2360  -0.2226

          Ground-State Mulliken Net Atomic Charges

     Atom                 Charge (a.u.)
  ----------------------------------------
      1 C                    -0.349457
      2 C                    -0.088645
      3 C                     0.325299
      4 C                    -0.272149
      5 C                     0.198830
      6 C                    -0.122112
      7 C                    -0.344674
      8 C                     0.478479
      9 N                    -0.540052
     10 C                    -0.011756
     11 C                     0.025387
     12 N                    -0.302817
     13 N                    -0.378664
     14 H                     0.154826
     15 H                     0.148575
     16 H                     0.150701
     17 H                     0.139248
     18 H                     0.128680
     19 H                     0.206547
     20 H                     0.143396
     21 H                     0.143778
     22 H                     0.166581
  ----------------------------------------
  Sum of atomic charges =     0.000000

                    Cartesian Multipole Moments
 -----------------------------------------------------------------
    Charge (ESU x 10^10)
                 0.0000
    Dipole Moment (Debye)
         X       1.4891      Y      -0.6631      Z       0.0001
       Tot       1.6301
    Quadrupole Moments (Debye-Ang)
        XX     -70.3773     XY      -4.1355     YY     -65.6242
        XZ       0.0032     YZ       0.0011     ZZ     -78.2947

 Total job time:  31.76s(wall), 31.66s(cpu)
        *  Thank you very much for using Q-Chem.  Have a nice day.  *
