 Q-Chem 5.2, Q-Chem, Inc., Pleasanton, CA (2019)
 Q-Chem 5.2.1 for Intel X86 EM64T Linux

User input:
--------------------------------------------------------------
$molecule
0 1
C         3.39381424010000   -2.26265043870000    0.71069441980000
C         2.26388644130000   -2.04807321740000    0.04783813520000
C         1.52925031920000   -0.78380723070000   -0.03262318130000
C         0.13864818040000   -0.85878357370000    0.02555069060000
C        -0.61671392940000    0.29420251510000   -0.00852214030000
O        -2.03217487390000    0.32469200120000    0.06303900260000
C        -2.71679710740000   -0.79093337900000    0.04567521410000
F        -2.51249489880000   -1.59605324470000    1.10832537570000
F        -4.01694925120000   -0.50347004330000    0.04190191460000
F        -2.49624783000000   -1.57033438700000   -1.03220575130000
C        -0.01056026210000    1.53168319060000   -0.12710174300000
C         1.36994116730000    1.63521006980000   -0.22797685470000
C         1.97836990530000    2.95394995520000   -0.40835002260000
C         1.52613545840000    4.07567185450000    0.13458590250000
C         2.16108582870000    0.46623961720000   -0.18000518070000
N         3.53124477820000    0.54930176990000   -0.22427995210000
H         3.84786404410000   -3.23901281410000    0.73520274930000
H         3.87759034920000   -1.49605815810000    1.29191202160000
H         1.78067532240000   -2.87859323310000   -0.45311712820000
H        -0.31434554410000   -1.83313351460000    0.11832638310000
H        -0.62927136700000    2.41172950660000   -0.17448736880000
H         2.85254686160000    2.99972655470000   -1.04822492000000
H         0.67852114050000    4.08559008350000    0.79798326180000
H         1.99947537020000    5.02426395700000   -0.05151153780000
H         3.92120132500000    1.40408172610000   -0.58524023540000
H         4.01202326890000   -0.29366545440000   -0.49823573820000
$end

$rem
BASIS = 6-31G*
GUI = 2
METHOD = B3LYP
PRINT_ORBITALS false
MOLDEN_FORMAT false
--------------------------------------------------------------

             Standard Nuclear Orientation (Angstroms)
    I     Atom           X                Y                Z
 ----------------------------------------------------------------
    1      C       2.3160406068     3.2917631573    -0.5147294562
    2      C       1.3297967980     2.6716056498     0.1215774541
    3      C       1.0516184393     1.2339552422     0.1039466077
    4      C      -0.2874664583     0.8524400446     0.0400893382
    5      C      -0.6224544874    -0.4838831984    -0.0158839249
    6      O      -1.9506638979    -0.9719424257    -0.1009617947
    7      C      -2.9628041063    -0.1469712828    -0.0080968136
    8      F      -3.0509792319     0.7542409228    -1.0077089705
    9      F      -4.0966299867    -0.8446223988    -0.0357879209
   10      F      -2.9925091853     0.5826536784     1.1253493981
   11      C       0.3577144732    -1.4590791637     0.0173343068
   12      C       1.6973098152    -1.1108171208     0.1216207796
   13      C       2.7072679151    -2.1662156968     0.2105779407
   14      C       2.6390135927    -3.3324666096    -0.4161242127
   15      C       2.0606327543     0.2532949256     0.1651850135
   16      N       3.3828324577     0.6214773984     0.2144266076
   17      H       2.4244652289     4.3621681708    -0.4645041708
   18      H       3.0149021084     2.7698793222    -1.1461934800
   19      H       0.6092112042     3.2596162630     0.6776463154
   20      H      -1.0362820713     1.6281977465     0.0147197393
   21      H       0.0625469326    -2.4944214601    -0.0044096461
   22      H       3.5583928167    -1.9681420217     0.8525078071
   23      H       1.8308565622    -3.5726075994    -1.0853468802
   24      H       3.4001166921    -4.0839429992    -0.2956451100
   25      H       4.0372518838    -0.0814674159     0.5154432363
   26      H       3.5650722016     1.5537121035     0.5528355340
 ----------------------------------------------------------------

    9    -854.6454386735      2.97e-06  Convergence criterion met
 Total energy in the final basis set =     -854.6454386735

                    Orbital Energies (a.u.)
 --------------------------------------------------------------

 Alpha MOs
 -- Occupied --
-24.7221 -24.7202 -24.7198 -19.2141 -14.3481 -10.4737 -10.2558 -10.2382
-10.2016 -10.2013 -10.2010 -10.2009 -10.1972 -10.1956 -10.1874 -10.1873
 -1.3181  -1.2180  -1.2128  -1.1116  -0.9384  -0.8619  -0.8166  -0.7896
 -0.7487  -0.7334  -0.6876  -0.6499  -0.6378  -0.6190  -0.5941  -0.5928
 -0.5623  -0.5476  -0.5391  -0.5231  -0.4838  -0.4703  -0.4661  -0.4620
 -0.4574  -0.4541  -0.4380  -0.4351  -0.4298  -0.4167  -0.4056  -0.4001
 -0.3943  -0.3927  -0.3813  -0.3746  -0.3686  -0.3442  -0.3130  -0.3089
 -0.2794  -0.2344  -0.2002

          Ground-State Mulliken Net Atomic Charges

     Atom                 Charge (a.u.)
  ----------------------------------------
      1 C                    -0.361280
      2 C                    -0.146125
      3 C                     0.123511
      4 C                    -0.243050
      5 C                     0.340758
      6 O                    -0.524613
      7 C                     0.971149
      8 F                    -0.279781
      9 F                    -0.256744
     10 F                    -0.280426
     11 C                    -0.248856
     12 C                     0.143845
     13 C                    -0.139186
     14 C                    -0.334139
     15 C                     0.203551
     16 N                    -0.814000
     17 H                     0.147227
     18 H                     0.169461
     19 H                     0.143568
     20 H                     0.160235
     21 H                     0.149469
     22 H                     0.123761
     23 H                     0.150874
     24 H                     0.145270
     25 H                     0.326593
     26 H                     0.328927
  ----------------------------------------
  Sum of atomic charges =     0.000000

                    Cartesian Multipole Moments
 -----------------------------------------------------------------
    Charge (ESU x 10^10)
                 0.0000
    Dipole Moment (Debye)
         X       3.9788      Y       0.4680      Z       0.9720
       Tot       4.1225
    Quadrupole Moments (Debye-Ang)
        XX     -85.6698     XY      -0.3853     YY     -81.7080
        XZ       4.0424     YZ       1.7207     ZZ     -92.3178

 Total job time:  44.44s(wall), 44.27s(cpu)
        *  Thank you very much for using Q-Chem.  Have a nice day.  *
