 Q-Chem 5.2, Q-Chem, Inc., Pleasanton, CA (2019)
 Q-Chem 5.2.1 for Intel X86 EM64T Linux

User input:
--------------------------------------------------------------
$molecule
0 1
C         3.62252741020000    0.01073354770000   -0.42464167610000
C         2.54378823160000   -0.45766299970000    0.18819539120000
C         1.21088886320000    0.13895245740000    0.11001232700000
C         1.07421756800000    1.52146352790000    0.04099785920000
C        -0.17192680930000    2.11673445710000    0.00223166500000
C        -1.30546947000000    1.32810813110000    0.04509040060000
C        -1.21701614940000   -0.05835418420000    0.11408636260000
C        -2.43582821400000   -0.86228118030000    0.19648218970000
C        -3.57878247950000   -0.57338466830000   -0.41084591410000
C         0.05440835170000   -0.66643583210000    0.13111337770000
N         0.16559383280000   -2.03455049680000    0.04097034910000
H         4.58727781270000   -0.45312634690000   -0.30830490530000
H         3.57936728180000    0.86573491390000   -1.07766734190000
H         2.64292008750000   -1.33796528470000    0.81541560240000
H         1.96400876230000    2.13293078220000    0.04432119690000
H        -0.25935925770000    3.19184510040000   -0.04298619810000
H        -2.28224835570000    1.78797550770000    0.05167130680000
H        -2.38888320950000   -1.74793560900000    0.82223404450000
H        -3.67727960180000    0.27819311230000   -1.06234064800000
H        -4.45541055920000   -1.18715216490000   -0.29141161710000
H        -0.64287060680000   -2.58072158540000    0.28472212610000
H         1.05265261670000   -2.44260235770000    0.28171608830000
$end

$rem
BASIS = 6-31G*
GUI = 2
METHOD = B3LYP
PRINT_ORBITALS false
MOLDEN_FORMAT false
--------------------------------------------------------------

             Standard Nuclear Orientation (Angstroms)
    I     Atom           X                Y                Z
 ----------------------------------------------------------------
    1      C       3.6122988581     0.2549498895     0.4260850146
    2      C       2.4981144105     0.6598417078    -0.1683041209
    3      C       1.2179582231    -0.0453397174    -0.1172882907
    4      C       1.1936347359    -1.4360481294    -0.1064540598
    5      C      -0.0002306362    -2.1312255849    -0.0946267695
    6      C      -1.1938981538    -1.4357322851    -0.1062131494
    7      C      -1.2179541345    -0.0449884431    -0.1169397582
    8      C      -2.4979203613     0.6605031317    -0.1675226849
    9      C      -3.6126750532     0.2549631098     0.4253620769
   10      C       0.0001121560     0.6640802250    -0.1064703933
   11      N       0.0004852255     2.0317269243     0.0410697008
   12      H       4.5361760667     0.7997584552     0.3308058699
   13      H       3.6395880904    -0.6273339014     1.0426588245
   14      H       2.5246147070     1.5707663032    -0.7579468491
   15      H       2.1299423715    -1.9728928098    -0.1339752833
   16      H      -0.0003727696    -3.2108329039    -0.0946155295
   17      H      -2.1303096494    -1.9723904832    -0.1335955028
   18      H      -2.5238660487     1.5724766261    -0.7555568261
   19      H      -3.6408211336    -0.6283214408     1.0404620595
   20      H      -4.5362707792     0.8003030570     0.3303507194
   21      H      -0.8499299249     2.5204681805    -0.1808730695
   22      H       0.8512122242     2.5198870230    -0.1809695071
 ----------------------------------------------------------------

    8    -442.3921004646      8.82e-06  Convergence criterion met
 Total energy in the final basis set =     -442.3921004646

                    Orbital Energies (a.u.)
 --------------------------------------------------------------

 Alpha MOs
 -- Occupied --
-14.3428 -10.2253 -10.1894 -10.1894 -10.1821 -10.1821 -10.1772 -10.1772
-10.1760 -10.1760 -10.1684  -0.9280  -0.8407  -0.8021  -0.7685  -0.7173
 -0.7113  -0.6353  -0.6045  -0.5778  -0.5362  -0.5269  -0.5226  -0.4691
 -0.4599  -0.4482  -0.4302  -0.4205  -0.4089  -0.3873  -0.3802  -0.3644
 -0.3371  -0.3322  -0.3090  -0.2966  -0.2716  -0.2173  -0.1914

          Ground-State Mulliken Net Atomic Charges

     Atom                 Charge (a.u.)
  ----------------------------------------
      1 C                    -0.338677
      2 C                    -0.141505
      3 C                     0.144581
      4 C                    -0.193364
      5 C                    -0.136292
      6 C                    -0.193408
      7 C                     0.144707
      8 C                    -0.141331
      9 C                    -0.338774
     10 C                     0.167496
     11 N                    -0.799458
     12 H                     0.138442
     13 H                     0.145339
     14 H                     0.118384
     15 H                     0.125217
     16 H                     0.118896
     17 H                     0.125204
     18 H                     0.118293
     19 H                     0.145318
     20 H                     0.138437
     21 H                     0.326250
     22 H                     0.326246
  ----------------------------------------
  Sum of atomic charges =     0.000000

                    Cartesian Multipole Moments
 -----------------------------------------------------------------
    Charge (ESU x 10^10)
                 0.0000
    Dipole Moment (Debye)
         X       0.0012      Y       1.4981      Z      -0.7713
       Tot       1.6849
    Quadrupole Moments (Debye-Ang)
        XX     -59.7725     XY       0.0019     YY     -56.3281
        XZ      -0.0010     YZ      -4.1684     ZZ     -69.1115

 Total job time:  22.25s(wall), 22.16s(cpu)
        *  Thank you very much for using Q-Chem.  Have a nice day.  *
