 Q-Chem 5.2, Q-Chem, Inc., Pleasanton, CA (2019)
 Q-Chem 5.2.1 for Intel X86 EM64T Linux

User input:
--------------------------------------------------------------
$molecule
0 1
C        -5.99946493880000   -0.63129546320000    0.04870246710000
C        -4.88678413850000   -1.28525699420000    0.36303820940000
C        -3.52116551710000   -0.81351959350000    0.19366025790000
C        -3.19283924550000    0.40983607820000   -0.38990580120000
C        -1.87981047940000    0.81040981670000   -0.52375718300000
C        -0.82546917830000    0.02031223400000   -0.06182748130000
C        -1.15622587120000   -1.20906671950000    0.51470824310000
C        -2.46839022720000   -1.61993360870000    0.62931014690000
S         0.11818248470000   -2.25442553970000    1.16899442120000
C         1.41890481390000   -1.81529370330000    0.04592367470000
C         2.37669331300000   -2.76349044120000   -0.24675464270000
C         3.45615266610000   -2.46208208340000   -1.07828730840000
C         4.50548126380000   -3.41770622670000   -1.39711107520000
C         4.61453038560000   -4.66108590450000   -0.94266443350000
C         3.50661892990000   -1.17952621250000   -1.62385165690000
C         2.53640133040000   -0.23744778640000   -1.34853995660000
C         1.47632892000000   -0.52330852730000   -0.48719764320000
N         0.50189499550000    0.42259420030000   -0.18320756140000
C         0.82220345100000    1.83484805780000   -0.20848930550000
C         0.31965505100000    2.52409051490000    1.06413933270000
C         0.85021096450000    3.95047715220000    1.20735620570000
C         0.40798994260000    4.91852650720000    0.10704612620000
C        -1.10529178620000    5.09373836570000   -0.03037862900000
C        -1.75914034920000    5.66957618350000    1.21986571310000
H        -6.96931250980000   -1.06867750240000    0.21199832510000
H        -5.99544559380000    0.35647519610000   -0.37908432810000
H        -4.96653701250000   -2.27546087110000    0.79508095540000
H        -3.97204574860000    1.05964877900000   -0.75599767000000
H        -1.67001407580000    1.75198168520000   -1.00604172200000
H        -2.67220469110000   -2.57564600040000    1.08941976360000
H         2.28150987990000   -3.73950783730000    0.20120536510000
H         5.26026039710000   -3.04083769220000   -2.07719021390000
H         3.90374518670000   -5.09813981840000   -0.26296377220000
H         5.43317656040000   -5.29408956420000   -1.23894700050000
H         4.31856246440000   -0.91599924500000   -2.28645461240000
H         2.60042468910000    0.73150661740000   -1.81924755580000
H         0.41861100310000    2.32238896460000   -1.10359028770000
H         1.90916302590000    1.92708781810000   -0.23206013920000
H         0.66216811590000    1.93759210570000    1.92050856460000
H        -0.76971086310000    2.52551371850000    1.08918076370000
H         1.94307105540000    3.92101808130000    1.21538629550000
H         0.53108111650000    4.34035984790000    2.17511004590000
H         0.81219733660000    4.58624981640000   -0.85166978080000
H         0.85099190950000    5.89456735250000    0.32104380260000
H        -1.57281319670000    4.13824563400000   -0.27339582600000
H        -1.29230617090000    5.76862688690000   -0.86958523270000
H        -1.69331658130000    4.97378763180000    2.05221873040000
H        -2.81115267210000    5.87422240020000    1.03417813850000
H        -1.27505468850000    6.60031830960000    1.50803028320000
$end

$rem
BASIS = 6-31G*
GUI = 2
METHOD = B3LYP
PRINT_ORBITALS false
MOLDEN_FORMAT false
--------------------------------------------------------------

             Standard Nuclear Orientation (Angstroms)
    I     Atom           X                Y                Z
 ----------------------------------------------------------------
    1      C       3.4770518558    -4.8735718389     0.7256200644
    2      C       2.3037388772    -4.5210078340     0.2122328002
    3      C       1.7098608244    -3.1931332022     0.2262722242
    4      C       2.2952236749    -2.0912201348     0.8492365173
    5      C       1.6899082044    -0.8520077895     0.8301054534
    6      C       0.4783425858    -0.6421753382     0.1687826027
    7      C      -0.1108345061    -1.7496090112    -0.4473562267
    8      C       0.4835317006    -2.9942221943    -0.4101093373
    9      S      -1.6268412194    -1.5622989501    -1.3482561711
   10      C      -2.3432578084    -0.2559302992    -0.3858885346
   11      C      -3.7180124312    -0.1861853372    -0.3005549092
   12      C      -4.3435223651     0.8500037539     0.3941216755
   13      C      -5.7887535192     0.9829339198     0.4920659742
   14      C      -6.7002045249     0.1936519035    -0.0653364364
   15      C      -3.5236814412     1.7871543759     1.0224101725
   16      C      -2.1476698137     1.7050362202     0.9554841456
   17      C      -1.5193384304     0.6920952203     0.2298598193
   18      N      -0.1334478051     0.6080499258     0.1354830404
   19      C       0.6781672998     1.8044685471     0.2224372553
   20      C       1.7060292288     1.8418687362    -0.9130339202
   21      C       2.4125735032     3.1931022257    -1.0204710380
   22      C       3.2496971637     3.5840590633     0.2000771934
   23      C       4.3680864501     2.6039405110     0.5580986690
   24      C       5.4110472009     2.4546955394    -0.5428903688
   25      H       3.8306160895    -5.8884354895     0.6654785675
   26      H       4.1306086086    -4.1769087075     1.2218383881
   27      H       1.6996470381    -5.2749060774    -0.2779056106
   28      H       3.2349755002    -2.2002108010     1.3673389382
   29      H       2.1641702144    -0.0335987958     1.3482297203
   30      H      -0.0083394388    -3.8167612474    -0.9082254473
   31      H      -4.2990808076    -0.9425138598    -0.8032125660
   32      H      -6.1197401445     1.8254724021     1.0877217699
   33      H      -6.4425403835    -0.6576596862    -0.6712262606
   34      H      -7.7527749840     0.3763357956     0.0664989775
   35      H      -3.9728761034     2.5934763384     1.5843803590
   36      H      -1.5543191729     2.4349270603     1.4843807798
   37      H       1.1698148982     1.8863428683     1.1988429100
   38      H       0.0155958917     2.6630402571     0.1024429921
   39      H       1.1772903537     1.6499603342    -1.8501946387
   40      H       2.4386997835     1.0451976190    -0.7871125841
   41      H       1.6620613505     3.9715816707    -1.1816441125
   42      H       3.0542329516     3.1762710925    -1.9027350216
   43      H       2.5945266381     3.7018283045     1.0659926600
   44      H       3.6970302396     4.5612725734     0.0009582472
   45      H       3.9477897795     1.6242486655     0.7908100444
   46      H       4.8599094901     2.9688054676     1.4634716754
   47      H       4.9839465373     1.9873589219    -1.4263197839
   48      H       6.2354840226     1.8342501160    -0.1987373788
   49      H       5.8089634172     3.4273766781    -0.8243379465
 ----------------------------------------------------------------

    9   -1306.3057595955      3.20e-06  Convergence criterion met
 Total energy in the final basis set =    -1306.3057595955

                    Orbital Energies (a.u.)
 --------------------------------------------------------------

 Alpha MOs
 -- Occupied --
-88.8858 -14.3672 -10.2345 -10.2340 -10.2258 -10.2173 -10.2168 -10.1920
-10.1908 -10.1908 -10.1906 -10.1895 -10.1890 -10.1883 -10.1878 -10.1875
-10.1868 -10.1829 -10.1822 -10.1816 -10.1806 -10.1760 -10.1748 -10.1727
 -7.9468  -5.9118  -5.9083  -5.9017  -0.9790  -0.8700  -0.8663  -0.8203
 -0.8105  -0.7972  -0.7768  -0.7679  -0.7567  -0.7340  -0.7263  -0.7105
 -0.6816  -0.6656  -0.6419  -0.6224  -0.6114  -0.5971  -0.5919  -0.5653
 -0.5561  -0.5438  -0.5354  -0.5185  -0.4942  -0.4837  -0.4797  -0.4699
 -0.4651  -0.4575  -0.4493  -0.4438  -0.4358  -0.4281  -0.4253  -0.4155
 -0.4136  -0.4080  -0.4053  -0.3944  -0.3902  -0.3865  -0.3782  -0.3729
 -0.3653  -0.3596  -0.3537  -0.3519  -0.3467  -0.3397  -0.3365  -0.3272
 -0.3205  -0.3196  -0.3143  -0.3006  -0.2970  -0.2620  -0.2585  -0.2234
 -0.2177  -0.1774

          Ground-State Mulliken Net Atomic Charges

     Atom                 Charge (a.u.)
  ----------------------------------------
      1 C                    -0.357247
      2 C                    -0.113533
      3 C                     0.199408
      4 C                    -0.206317
      5 C                    -0.167150
      6 C                     0.317377
      7 C                    -0.112688
      8 C                    -0.261897
      9 S                     0.159852
     10 C                    -0.110445
     11 C                    -0.247116
     12 C                     0.200209
     13 C                    -0.116961
     14 C                    -0.355955
     15 C                    -0.216265
     16 C                    -0.167078
     17 C                     0.313797
     18 N                    -0.585356
     19 C                    -0.154912
     20 C                    -0.276320
     21 C                    -0.268353
     22 C                    -0.257679
     23 C                    -0.260082
     24 C                    -0.445103
     25 H                     0.142838
     26 H                     0.139189
     27 H                     0.127222
     28 H                     0.127549
     29 H                     0.138332
     30 H                     0.141838
     31 H                     0.141124
     32 H                     0.124305
     33 H                     0.142058
     34 H                     0.142134
     35 H                     0.128046
     36 H                     0.134402
     37 H                     0.147752
     38 H                     0.159823
     39 H                     0.153271
     40 H                     0.158569
     41 H                     0.130533
     42 H                     0.141545
     43 H                     0.129109
     44 H                     0.131656
     45 H                     0.135254
     46 H                     0.133780
     47 H                     0.150579
     48 H                     0.145081
     49 H                     0.143827
  ----------------------------------------
  Sum of atomic charges =     0.000000

                    Cartesian Multipole Moments
 -----------------------------------------------------------------
    Charge (ESU x 10^10)
                 0.0000
    Dipole Moment (Debye)
         X       1.5033      Y       1.9350      Z       0.9459
       Tot       2.6266
    Quadrupole Moments (Debye-Ang)
        XX    -144.2974     XY      -0.3167     YY    -142.8116
        XZ       1.4969     YZ       4.3314     ZZ    -153.8013

 Total job time:  141.74s(wall), 141.37s(cpu)
        *  Thank you very much for using Q-Chem.  Have a nice day.  *
