 Q-Chem 5.2, Q-Chem, Inc., Pleasanton, CA (2019)
 Q-Chem 5.2.1 for Intel X86 EM64T Linux

User input:
--------------------------------------------------------------
$molecule
0 1
C        -7.06284164150000   -0.45169065850000   -0.08190399660000
C        -5.78707804090000   -0.81528537930000   -0.10394257720000
C        -4.62829544550000    0.06636344030000    0.00252158830000
C        -4.71707271710000    1.45532770960000    0.13694367930000
C        -3.54943133550000    2.19177703110000    0.22847165880000
C        -2.33246930830000    1.53589360710000    0.18288047730000
C        -2.33242778750000    0.14659149560000    0.04637262070000
C        -1.06845973160000   -0.60381567950000   -0.00493789000000
C        -1.07205231500000   -1.99968844880000   -0.04062749030000
C         0.14149356310000   -2.66294791470000   -0.08047168480000
C         1.31013137040000   -1.92247320830000   -0.08519228340000
C         1.21855759240000   -0.52955613740000   -0.05193461660000
C         2.43260656890000    0.30127321790000   -0.06315115070000
C         2.34196281900000    1.69193799990000   -0.15822738630000
C         3.51186135050000    2.42905518300000   -0.16965261870000
C         4.72301760810000    1.76491627700000   -0.08516797510000
C         4.72314836190000    0.36949004360000    0.00914692480000
C         5.98207898000000   -0.36314314600000    0.10471828670000
C         6.05766911020000   -1.68130126840000    0.23514722860000
N         3.59468129530000   -0.33320269960000    0.01677762520000
N         0.05356945810000    0.10667431950000   -0.01225372070000
N        -3.45403639190000   -0.55765360390000   -0.03906674830000
H        -7.85238316440000   -1.17845842910000   -0.16818592730000
H        -7.37784437480000    0.57290175780000    0.02179567770000
H        -5.52003681650000   -1.85812298560000   -0.20950626840000
H        -5.67688398120000    1.94513777620000    0.16916844160000
H        -3.58942394310000    3.26694405680000    0.33476839640000
H        -1.39384919880000    2.05960548910000    0.25205131130000
H        -2.01502846050000   -2.52089889320000   -0.03522439950000
H         0.17595540070000   -3.74304980260000   -0.10761074000000
H         2.28392731280000   -2.38217218180000   -0.11616351220000
H         1.37102026810000    2.15350295880000   -0.22376926390000
H         3.48209418910000    3.50718888200000   -0.24410665080000
H         5.65613971910000    2.30825802750000   -0.09060001580000
H         6.87736582020000    0.24382670150000    0.06592222480000
H         5.16207783060000   -2.27633300750000    0.27634752570000
H         7.00015474080000   -2.19659222400000    0.30498401290000
$end

$rem
BASIS = 6-31G*
GUI = 2
METHOD = B3LYP
PRINT_ORBITALS false
MOLDEN_FORMAT false
--------------------------------------------------------------

             Standard Nuclear Orientation (Angstroms)
    I     Atom           X                Y                Z
 ----------------------------------------------------------------
    1      C       7.0563052991     0.4805052352    -0.0760819156
    2      C       5.7790899792     0.8390970946    -0.0958932652
    3      C       4.6238409364    -0.0480209772     0.0032911024
    4      C       4.7181828622    -1.4376056963     0.1270907516
    5      C       3.5534936749    -2.1794509196     0.2124495941
    6      C       2.3339063378    -1.5281628388     0.1713550660
    7      C       2.3282989179    -0.1378654950     0.0455114869
    8      C       1.0613257897     0.6077966146    -0.0005976665
    9      C       1.0592844678     2.0039052998    -0.0255739450
   10      C      -0.1569189556     2.6625388504    -0.0608635503
   11      C      -1.3225487598     1.9174030563    -0.0717817703
   12      C      -1.2253528258     0.5246534113    -0.0491726527
   13      C      -2.4360251286    -0.3109673887    -0.0672999689
   14      C      -2.3397156462    -1.7004836491    -0.1730040918
   15      C      -3.5066169983    -2.4422156868    -0.1906015416
   16      C      -4.7204854185    -1.7836472699    -0.1015581778
   17      C      -4.7263016086    -0.3889979210     0.0034611336
   18      C      -5.9882257137     0.3377839465     0.1040953571
   19      C      -6.0692028089     1.6545858160     0.2446014378
   20      N      -3.6006905193     0.3181725737     0.0169817268
   21      N      -0.0578160529    -0.1071472286    -0.0138603857
   22      N       3.4470835266     0.5715438635    -0.0340263574
   23      H       7.8429347789     1.2111002298    -0.1564361041
   24      H       7.3754089634    -0.5435708493     0.0198919798
   25      H       5.5078743615     1.8816259124    -0.1935699475
   26      H       5.6799550194    -1.9237638268     0.1559800075
   27      H       3.5977930770    -3.2552315970     0.3105109793
   28      H       1.3973848446    -2.0561810331     0.2360909062
   29      H       2.0001414695     2.5288674212    -0.0157553334
   30      H      -0.1957400981     3.7426690452    -0.0797292833
   31      H      -2.2981841469     2.3733850614    -0.0996547504
   32      H      -1.3668864560    -2.1576023849    -0.2416569453
   33      H      -3.4724567521    -3.5196170392    -0.2733128661
   34      H      -5.6513988989    -2.3306997995    -0.1115712032
   35      H      -6.8810330630    -0.2724852426     0.0602477771
   36      H      -5.1760437010     2.2529001247     0.2907617141
   37      H      -7.0137944845     2.1655106247     0.3179738819
 ----------------------------------------------------------------

    8    -897.2889800391      9.42e-06  Convergence criterion met
 Total energy in the final basis set =     -897.2889800391

                    Orbital Energies (a.u.)
 --------------------------------------------------------------

 Alpha MOs
 -- Occupied --
-14.3251 -14.3233 -14.3222 -10.2263 -10.2247 -10.2235 -10.2227 -10.2222
-10.2222 -10.2037 -10.2029 -10.2000 -10.1954 -10.1940 -10.1896 -10.1886
-10.1885 -10.1882 -10.1880 -10.1859 -10.1851 -10.1786  -0.9627  -0.9514
 -0.9377  -0.8168  -0.8079  -0.8044  -0.8005  -0.7977  -0.7689  -0.7386
 -0.7238  -0.6625  -0.6566  -0.6397  -0.6362  -0.6082  -0.5934  -0.5691
 -0.5635  -0.5287  -0.5108  -0.4981  -0.4926  -0.4883  -0.4756  -0.4664
 -0.4582  -0.4491  -0.4364  -0.4278  -0.4224  -0.4212  -0.4116  -0.4097
 -0.4042  -0.3955  -0.3873  -0.3805  -0.3744  -0.3634  -0.3565  -0.3475
 -0.3193  -0.3070  -0.2967  -0.2902  -0.2768  -0.2697  -0.2540  -0.2506
 -0.2452  -0.2294  -0.2190

          Ground-State Mulliken Net Atomic Charges

     Atom                 Charge (a.u.)
  ----------------------------------------
      1 C                    -0.347297
      2 C                    -0.093886
      3 C                     0.317478
      4 C                    -0.175811
      5 C                    -0.100428
      6 C                    -0.154721
      7 C                     0.261319
      8 C                     0.270730
      9 C                    -0.152740
     10 C                    -0.100050
     11 C                    -0.153852
     12 C                     0.269181
     13 C                     0.261560
     14 C                    -0.156109
     15 C                    -0.098165
     16 C                    -0.186017
     17 C                     0.330984
     18 C                    -0.110295
     19 C                    -0.333535
     20 N                    -0.582861
     21 N                    -0.595436
     22 N                    -0.583173
     23 H                     0.149472
     24 H                     0.143108
     25 H                     0.142243
     26 H                     0.134974
     27 H                     0.139901
     28 H                     0.163291
     29 H                     0.163516
     30 H                     0.140848
     31 H                     0.165008
     32 H                     0.162548
     33 H                     0.139521
     34 H                     0.135028
     35 H                     0.125256
     36 H                     0.166481
     37 H                     0.141930
  ----------------------------------------
  Sum of atomic charges =     0.000001

                    Cartesian Multipole Moments
 -----------------------------------------------------------------
    Charge (ESU x 10^10)
                 0.0000
    Dipole Moment (Debye)
         X       0.1645      Y      -1.5536      Z       0.0075
       Tot       1.5623
    Quadrupole Moments (Debye-Ang)
        XX    -105.2361     XY      -0.2418     YY    -109.0488
        XZ       0.7155     YZ      -0.1149     ZZ    -131.2560

 Total job time:  77.03s(wall), 76.82s(cpu)
        *  Thank you very much for using Q-Chem.  Have a nice day.  *
