 Q-Chem 5.2, Q-Chem, Inc., Pleasanton, CA (2019)
 Q-Chem 5.2.1 for Intel X86 EM64T Linux

User input:
--------------------------------------------------------------
$molecule
0 1
C         5.97864386520000    4.00702458890000   -0.12544901130000
C         4.69514206910000    4.34992688280000   -0.04294617410000
C         3.58306152310000    3.45286410240000   -0.20427228210000
C         3.56293486670000    2.10553570140000   -0.46101427470000
C         2.27186786630000    1.55834170560000   -0.56369269560000
C         2.02501072680000    0.09969213380000   -0.79079804410000
C         1.78605536650000   -0.61838782560000    0.54319323180000
C         1.61100684040000   -2.12905873540000    0.39076411850000
C         0.40686227320000   -2.56014629600000   -0.45068361440000
C        -0.94783724860000   -2.03385615030000    0.02701408780000
C        -1.33408559200000   -2.53119168190000    1.41759418710000
C        -2.67576334650000   -1.97844330650000    1.90364796810000
C        -3.88673533810000   -2.37746272870000    1.05832322460000
C        -4.11701234410000   -3.88647832290000    1.01501895850000
C        -5.45245427510000   -4.27264670510000    0.37711720990000
C        -5.60221022830000   -3.87065368870000   -1.09140705860000
C        -4.57720904040000   -4.53262097860000   -2.00501657060000
C         1.28083330510000    2.49976643690000   -0.37336611850000
C        -0.14111957820000    2.30165682600000   -0.40523467110000
C        -1.05015092940000    3.23254657430000   -0.12638166610000
S         1.96487809490000    4.07156278880000   -0.07572838080000
H         6.76077030200000    4.73359190600000    0.00561616770000
H         6.29048314880000    2.99670638300000   -0.32561524650000
H         4.42552085120000    5.37855873230000    0.15942504340000
H         4.45535171060000    1.51686150480000   -0.57833726310000
H         2.89573818290000   -0.33880262090000   -1.28289228990000
H         1.16299790030000   -0.03534705660000   -1.44501414500000
H         0.91200380800000   -0.18670343440000    1.03321751110000
H         2.64462796220000   -0.43333386350000    1.19417864720000
H         1.52972415780000   -2.56876535210000    1.38670715550000
H         2.51136029080000   -2.54266224950000   -0.07156300480000
H         0.37410921880000   -3.65303050990000   -0.45552121930000
H         0.55959104650000   -2.24002248650000   -1.48393264440000
H        -1.70083993540000   -2.35852870470000   -0.69402196640000
H        -0.94698283180000   -0.94244816650000    0.02611159020000
H        -0.57019089650000   -2.22209264760000    2.13376627790000
H        -1.36048442340000   -3.62230927790000    1.41857985540000
H        -2.61485620290000   -0.88688647590000    1.92869441730000
H        -2.83743144400000   -2.32074358220000    2.92924776840000
H        -3.76569781190000   -1.99038909720000    0.04645528880000
H        -4.77212015130000   -1.89965943030000    1.48643742090000
H        -4.10328445380000   -4.27224105080000    2.03797510430000
H        -3.30564886910000   -4.37105590480000    0.47206722200000
H        -6.26210375340000   -3.80983924150000    0.94754404120000
H        -5.57344773330000   -5.35636555260000    0.45537622010000
H        -5.52849636980000   -2.78604923150000   -1.18631881810000
H        -6.60410602120000   -4.15762221740000   -1.42075436780000
H        -3.57106166860000   -4.18712951830000   -1.78189249260000
H        -4.79101730060000   -4.29667381070000   -3.04528950500000
H        -4.60382943270000   -5.61390335620000   -1.88652164200000
H        -0.46036437500000    1.30537165930000   -0.68203756690000
H        -0.76291021490000    4.23171192460000    0.15667055290000
H        -2.10450594260000    3.02446897460000   -0.17078225320000
$end

$rem
BASIS = 6-31G*
GUI = 2
METHOD = B3LYP
PRINT_ORBITALS false
MOLDEN_FORMAT false
--------------------------------------------------------------

             Standard Nuclear Orientation (Angstroms)
    I     Atom           X                Y                Z
 ----------------------------------------------------------------
    1      C       7.2651193320    -1.1076098602     0.0026699743
    2      C       6.5573405600     0.0158216855     0.0960312833
    3      C       5.1359424828     0.1209740510    -0.0938143697
    4      C       4.2092822308    -0.8450452600    -0.3933520489
    5      C       2.8938498038    -0.3633447356    -0.5134364410
    6      C       1.7247762593    -1.2570206659    -0.7869035128
    7      C       1.0318918465    -1.6506592976     0.5235281088
    8      C      -0.1216668499    -2.6330601375     0.3230433401
    9      C      -1.2783608976    -2.1084187675    -0.5317345396
   10      C      -1.9219553209    -0.8115213740    -0.0375376399
   11      C      -2.5735615960    -0.9446258887     1.3364841491
   12      C      -3.1897883148     0.3625617138     1.8398760881
   13      C      -4.3295578999     0.9154064632     0.9822447210
   14      C      -5.5247857442    -0.0306981343     0.8908810879
   15      C      -6.7514188344     0.6115187069     0.2409744775
   16      C      -6.5553899335     1.0418807845    -1.2139997182
   17      C      -6.2360529443    -0.1194865872    -2.1482160656
   18      C       2.8053911496     0.9961916518    -0.2932317411
   19      C       1.6303346545     1.8208107703    -0.3314229397
   20      C       1.5928036489     3.1147053260    -0.0230708331
   21      S       4.3699956927     1.6731349638     0.0543450782
   22      H       8.3295510509    -1.1119861076     0.1568318202
   23      H       6.8097197919    -2.0545658351    -0.2295772607
   24      H       7.0560661882     0.9473603667     0.3310666549
   25      H       4.4641853696    -1.8810171725    -0.5293535310
   26      H       2.0742128841    -2.1596074575    -1.2927017218
   27      H       1.0160519038    -0.7532554874    -1.4451062441
   28      H       0.6754292835    -0.7507419753     1.0270403619
   29      H       1.7722272919    -2.1154140472     1.1800951907
   30      H      -0.5022285668    -2.9225861173     1.3044702619
   31      H       0.2657592713    -3.5383150934    -0.1522092631
   32      H      -2.0464634199    -2.8855532969    -0.5713894059
   33      H      -0.9261253937    -1.9541891577    -1.5542570415
   34      H      -2.6785717950    -0.5192076098    -0.7685660113
   35      H      -1.1780825409    -0.0135996740    -0.0036676022
   36      H      -1.8194720152    -1.2556410164     2.0621550642
   37      H      -3.3359364134    -1.7249329775     1.3027060049
   38      H      -2.4024204623     1.1190719549     1.8996877858
   39      H      -3.5635028150     0.1983765135     2.8540465349
   40      H      -3.9553926091     1.1397108552    -0.0167751353
   41      H      -4.6615653418     1.8582293839     1.4253474441
   42      H      -5.7996537032    -0.3461212185     1.9010278577
   43      H      -5.2490791623    -0.9253678329     0.3327818847
   44      H      -7.0412926202     1.4884530381     0.8258412683
   45      H      -7.5796749892    -0.1007265919     0.2846643680
   46      H      -5.7607766652     1.7873750089    -1.2743065894
   47      H      -7.4770230920     1.5222273275    -1.5523416844
   48      H      -5.2691474689    -0.5574381767    -1.9141787950
   49      H      -6.2092850153     0.2230540121    -3.1804477412
   50      H      -6.9944447519    -0.8951860729    -2.0642312594
   51      H       0.7242155595     1.3158823377    -0.6398328623
   52      H       2.4773220309     3.6434005120     0.2916763927
   53      H       0.6803053361     3.6818695195    -0.0740982799
 ----------------------------------------------------------------

    9   -1179.5591445090      2.46e-06  Convergence criterion met
 Total energy in the final basis set =    -1179.5591445090

                    Orbital Energies (a.u.)
 --------------------------------------------------------------

 Alpha MOs
 -- Occupied --
-88.8988 -10.2157 -10.2106 -10.1973 -10.1949 -10.1924 -10.1871 -10.1834
-10.1815 -10.1789 -10.1782 -10.1754 -10.1752 -10.1746 -10.1730 -10.1723
-10.1720 -10.1713 -10.1708 -10.1706 -10.1676  -7.9608  -5.9247  -5.9212
 -5.9177  -0.8885  -0.8206  -0.8105  -0.8024  -0.7879  -0.7722  -0.7605
 -0.7366  -0.7138  -0.7007  -0.6812  -0.6583  -0.6306  -0.6222  -0.6118
 -0.5809  -0.5730  -0.5529  -0.5372  -0.5355  -0.5242  -0.4885  -0.4839
 -0.4715  -0.4616  -0.4583  -0.4517  -0.4481  -0.4380  -0.4346  -0.4212
 -0.4128  -0.4078  -0.4073  -0.3968  -0.3913  -0.3844  -0.3803  -0.3782
 -0.3734  -0.3620  -0.3605  -0.3577  -0.3543  -0.3446  -0.3392  -0.3319
 -0.3316  -0.3272  -0.3197  -0.3150  -0.3135  -0.3118  -0.3023  -0.3019
 -0.2984  -0.2675  -0.2433  -0.1940

          Ground-State Mulliken Net Atomic Charges

     Atom                 Charge (a.u.)
  ----------------------------------------
      1 C                    -0.341800
      2 C                    -0.088246
      3 C                    -0.127350
      4 C                    -0.161974
      5 C                     0.154859
      6 C                    -0.349369
      7 C                    -0.259650
      8 C                    -0.258980
      9 C                    -0.262703
     10 C                    -0.274394
     11 C                    -0.259653
     12 C                    -0.259388
     13 C                    -0.259421
     14 C                    -0.258279
     15 C                    -0.252684
     16 C                    -0.252392
     17 C                    -0.447634
     18 C                    -0.204719
     19 C                    -0.059777
     20 C                    -0.381064
     21 S                     0.232720
     22 H                     0.146494
     23 H                     0.142052
     24 H                     0.137130
     25 H                     0.131081
     26 H                     0.142187
     27 H                     0.150947
     28 H                     0.147176
     29 H                     0.138140
     30 H                     0.136450
     31 H                     0.127007
     32 H                     0.129151
     33 H                     0.131018
     34 H                     0.136597
     35 H                     0.136446
     36 H                     0.134446
     37 H                     0.134013
     38 H                     0.126543
     39 H                     0.126386
     40 H                     0.137005
     41 H                     0.127253
     42 H                     0.126867
     43 H                     0.136322
     44 H                     0.126191
     45 H                     0.124513
     46 H                     0.135851
     47 H                     0.130184
     48 H                     0.147413
     49 H                     0.142426
     50 H                     0.141959
     51 H                     0.143520
     52 H                     0.155236
     53 H                     0.143895
  ----------------------------------------
  Sum of atomic charges =     0.000000

                    Cartesian Multipole Moments
 -----------------------------------------------------------------
    Charge (ESU x 10^10)
                -0.0000
    Dipole Moment (Debye)
         X      -0.6533      Y      -1.0371      Z      -0.0584
       Tot       1.2271
    Quadrupole Moments (Debye-Ang)
        XX    -136.0343     XY      -4.2534     YY    -136.1557
        XZ       0.9558     YZ       1.4477     ZZ    -143.4330

 Total job time:  124.69s(wall), 122.62s(cpu)
        *  Thank you very much for using Q-Chem.  Have a nice day.  *
