 Q-Chem 5.2, Q-Chem, Inc., Pleasanton, CA (2019)
 Q-Chem 5.2.1 for Intel X86 EM64T Linux

User input:
--------------------------------------------------------------
$molecule
0 1
C         4.26062510090000    1.53583144300000    0.16078460920000
C         2.99355374660000    1.92451108240000    0.04932246820000
C         1.87104766590000    1.02406429730000   -0.00469800350000
C         0.53001191600000    1.29271537510000   -0.11772534200000
C        -0.13019347900000    0.04012657740000   -0.12506632280000
C        -1.56969703430000   -0.20042892040000   -0.22752401830000
O        -2.09472577510000   -1.28967790660000   -0.24270897140000
O        -2.24877370740000    0.95372849040000   -0.31537477300000
C        -3.66823451070000    0.85776177080000   -0.40657096420000
C        -4.30598288570000    0.67748854710000    0.96403527570000
C         0.86912211680000   -0.92054806510000   -0.01353550170000
C         0.76392449000000   -2.35344268610000    0.03068196770000
C         1.80962940380000   -3.16977868010000    0.14392769270000
O         2.06660366110000   -0.31641487490000    0.05812161120000
H         5.06815240280000    2.24508080910000    0.19710992240000
H         4.52160577760000    0.49304897770000    0.21852437190000
H         2.73076146390000    2.97127766050000   -0.00886229560000
H         0.06589700100000    2.25426327730000   -0.18793899520000
H        -3.92627268490000    0.01404006870000   -1.05556921190000
H        -3.98610248600000    1.79467232050000   -0.86911187890000
H        -3.98821579190000   -0.26732658630000    1.39809052510000
H        -5.38771034690000    0.67360146040000    0.86507468120000
H        -4.01102539070000    1.48817089700000    1.62616153970000
H        -0.24791932250000   -2.72471701320000   -0.03637753980000
H         2.81523394160000   -2.78934292850000    0.20964512820000
H         1.68801707280000   -4.23785969310000    0.17378442970000
$end

$rem
BASIS = 6-31G*
GUI = 2
METHOD = B3LYP
PRINT_ORBITALS false
MOLDEN_FORMAT false
--------------------------------------------------------------

             Standard Nuclear Orientation (Angstroms)
    I     Atom           X                Y                Z
 ----------------------------------------------------------------
    1      C       4.2687582252     1.5651732276     0.1687119445
    2      C       2.9987518188     1.9424183802     0.0515142033
    3      C       1.8846947317     1.0318779443    -0.0079454201
    4      C       0.5418202761     1.2884312703    -0.1270842083
    5      C      -0.1069911528     0.0299274119    -0.1378321290
    6      C      -1.5437727781    -0.2235986963    -0.2470021162
    7      O      -2.0588552758    -1.3175447529    -0.2649230842
    8      O      -2.2328452748     0.9244010338    -0.3376548942
    9      C      -3.6509445216     0.8156352840    -0.4354294640
   10      C      -4.2933524621     0.6291529431     0.9321666988
   11      C       0.9004450346    -0.9217100646    -0.0219658499
   12      C       0.8080052962    -2.3555116538     0.0213540939
   13      C       1.8605153700    -3.1623975596     0.1391908280
   14      O       2.0920716765    -0.3067990661     0.0553911957
   15      H       5.0696632222     2.2816822527     0.2089678462
   16      H       4.5388880970     0.5247738988     0.2273562342
   17      H       2.7267764621     2.9867854268    -0.0075823004
   18      H       0.0693587072     2.2457669826    -0.1991631889
   19      H      -3.8983465795    -0.0301712892    -1.0858540930
   20      H      -3.9751341419     1.7497858652    -0.8991635550
   21      H      -3.9690608420    -0.3128934416     1.3674126935
   22      H      -5.3745325480     0.6155189653     0.8282131250
   23      H      -4.0087947973     1.4422509757     1.5958801238
   24      H      -0.2001199298    -2.7358965312    -0.0504816773
   25      H       2.8623249947    -2.7729075987     0.2096583740
   26      H       1.7484293206    -4.2315441474     0.1681791935
 ----------------------------------------------------------------

    9    -652.0331985075      7.09e-06  Convergence criterion met
 Total energy in the final basis set =     -652.0331985075

                    Orbital Energies (a.u.)
 --------------------------------------------------------------

 Alpha MOs
 -- Occupied --
-19.2269 -19.1893 -19.1312 -10.3158 -10.2582 -10.2491 -10.2414 -10.2015
-10.1997 -10.1941 -10.1930 -10.1868 -10.1857 -10.1787  -1.1331  -1.1062
 -1.0157  -0.8260  -0.8227  -0.7835  -0.7695  -0.7208  -0.6781  -0.6319
 -0.6256  -0.5888  -0.5736  -0.5434  -0.5072  -0.4894  -0.4811  -0.4737
 -0.4634  -0.4604  -0.4548  -0.4441  -0.4227  -0.4094  -0.4033  -0.3849
 -0.3795  -0.3758  -0.3688  -0.3644  -0.3402  -0.3249  -0.2977  -0.2952
 -0.2752  -0.2731  -0.2032

          Ground-State Mulliken Net Atomic Charges

     Atom                 Charge (a.u.)
  ----------------------------------------
      1 C                    -0.353990
      2 C                    -0.109141
      3 C                     0.328598
      4 C                    -0.230483
      5 C                    -0.001096
      6 C                     0.589327
      7 O                    -0.505751
      8 O                    -0.464295
      9 C                    -0.043170
     10 C                    -0.464924
     11 C                     0.300766
     12 C                    -0.113572
     13 C                    -0.346993
     14 O                    -0.491956
     15 H                     0.147658
     16 H                     0.157688
     17 H                     0.143207
     18 H                     0.157463
     19 H                     0.167607
     20 H                     0.150433
     21 H                     0.179390
     22 H                     0.150862
     23 H                     0.156228
     24 H                     0.186432
     25 H                     0.157750
     26 H                     0.151962
  ----------------------------------------
  Sum of atomic charges =     0.000000

                    Cartesian Multipole Moments
 -----------------------------------------------------------------
    Charge (ESU x 10^10)
                 0.0000
    Dipole Moment (Debye)
         X       0.0051      Y       1.7190      Z       0.1159
       Tot       1.7229
    Quadrupole Moments (Debye-Ang)
        XX     -71.1308     XY      -4.0066     YY     -75.7473
        XZ       0.6034     YZ      -0.8420     ZZ     -83.5220

 Total job time:  39.03s(wall), 38.89s(cpu)
        *  Thank you very much for using Q-Chem.  Have a nice day.  *
