 Q-Chem 5.2, Q-Chem, Inc., Pleasanton, CA (2019)
 Q-Chem 5.2.1 for Intel X86 EM64T Linux

User input:
--------------------------------------------------------------
$molecule
0 1
C        -2.76928696100000    0.89602194400000   -0.35348117730000
C        -2.19835130190000   -0.13957984750000    0.24582647510000
C        -0.79515775630000   -0.50027854660000    0.16461922680000
N        -0.47805292690000   -1.78365979620000    0.25294371070000
N         0.84458646520000   -1.86003840600000    0.05070789480000
C         1.39822433490000   -0.64549467560000   -0.15934985470000
N         2.75830049990000   -0.47067130010000   -0.29867507480000
C         0.36741597710000    0.28788999950000   -0.08531025060000
C         0.56405625130000    1.72021542560000   -0.17546131790000
C        -0.14915110800000    2.64845588840000    0.44857124070000
H        -3.82883091010000    1.07271587750000   -0.27777801090000
H        -2.20491692560000    1.59881494980000   -0.94220793750000
H        -2.79594328760000   -0.85543859800000    0.79474774580000
H         1.31001702210000   -2.75161473650000    0.10061668780000
H         3.25644085190000   -1.25934699070000   -0.68403691860000
H         3.01511924960000    0.40684801100000   -0.72530454960000
H         1.41333018250000    2.02400711090000   -0.78117334160000
H        -0.97743041430000    2.39309930790000    1.08607710610000
H         0.07583026630000    3.69598454290000    0.34203031010000
$end

$rem
BASIS = 6-31G*
GUI = 2
METHOD = B3LYP
PRINT_ORBITALS false
MOLDEN_FORMAT false
--------------------------------------------------------------

             Standard Nuclear Orientation (Angstroms)
    I     Atom           X                Y                Z
 ----------------------------------------------------------------
    1      C       2.8223545848     0.5068342704    -0.5153802493
    2      C       1.8683972817     1.1859656721     0.1061937710
    3      C       0.4558147984     0.8539701361     0.1125173026
    4      N      -0.4150796202     1.8482290299     0.2042576042
    5      N      -1.6308881255     1.2964297363     0.0883473079
    6      C      -1.5684148543    -0.0441782621    -0.0685695711
    7      N      -2.6976010492    -0.8331535883    -0.1158810526
    8      C      -0.2200698595    -0.3918444236    -0.0498960542
    9      C       0.2653742086    -1.7554252002    -0.1077083468
   10      C       1.3590184396    -2.2219494368     0.4805170870
   11      H       3.8453822056     0.8428860595    -0.5070870173
   12      H       2.6183813649    -0.4013831049    -1.0562747573
   13      H       2.0936276744     2.1194182352     0.6050144563
   14      H      -2.4533246284     1.8734416699     0.1567598146
   15      H      -3.5238993823    -0.3808359727    -0.4782299799
   16      H      -2.5401062654    -1.7472523444    -0.5129044492
   17      H      -0.3764679191    -2.4424667010    -0.6521854475
   18      H       2.0063999637    -1.5861694041     1.0587456172
   19      H       1.6401409551    -3.2584112184     0.4030511115
 ----------------------------------------------------------------

    9    -436.3428181728      4.33e-06  Convergence criterion met
 Total energy in the final basis set =     -436.3428181728

                    Orbital Energies (a.u.)
 --------------------------------------------------------------

 Alpha MOs
 -- Occupied --
-14.4003 -14.3614 -14.3308 -10.2568 -10.1982 -10.1852 -10.1772 -10.1714
-10.1653 -10.1635  -1.0464  -0.9313  -0.8278  -0.7873  -0.7513  -0.7319
 -0.6279  -0.6185  -0.5748  -0.5452  -0.5326  -0.5042  -0.4746  -0.4580
 -0.4448  -0.4297  -0.4042  -0.3963  -0.3553  -0.3465  -0.3359  -0.2998
 -0.2817  -0.2676  -0.2094  -0.1920

          Ground-State Mulliken Net Atomic Charges

     Atom                 Charge (a.u.)
  ----------------------------------------
      1 C                    -0.349456
      2 C                    -0.100112
      3 C                     0.253389
      4 N                    -0.350909
      5 N                    -0.483354
      6 C                     0.494549
      7 N                    -0.788295
      8 C                    -0.002090
      9 C                    -0.133858
     10 C                    -0.349446
     11 H                     0.136779
     12 H                     0.153591
     13 H                     0.137550
     14 H                     0.332827
     15 H                     0.323932
     16 H                     0.339105
     17 H                     0.101674
     18 H                     0.153105
     19 H                     0.131019
  ----------------------------------------
  Sum of atomic charges =     0.000000

                    Cartesian Multipole Moments
 -----------------------------------------------------------------
    Charge (ESU x 10^10)
                -0.0000
    Dipole Moment (Debye)
         X      -3.4443      Y      -1.2771      Z      -1.3475
       Tot       3.9128
    Quadrupole Moments (Debye-Ang)
        XX     -43.1401     XY      -1.5434     YY     -58.5431
        XZ       4.6851     YZ       2.9261     ZZ     -61.0932

 Total job time:  19.94s(wall), 19.86s(cpu)
        *  Thank you very much for using Q-Chem.  Have a nice day.  *
