 Q-Chem 5.4, Q-Chem, Inc., Pleasanton, CA (2021)
 Q-Chem 5.4.2 for Intel X86 EM64T Linux

User input:
--------------------------------------------------------------
$molecule
0 1
C           -3.75428764280000       -1.18256437520000        0.98828726710000
C           -2.42934147250000       -1.19735446510000        1.05205276200000
C           -1.53537130200000       -0.20826297670000        0.45713578010000
C           -1.97068686170000        1.07202539330000        0.12590755380000
C           -1.09742557240000        1.97839864330000       -0.44522206070000
Cl          -1.66362904320000        3.55228432200000       -0.88338166770000
C            0.22858651730000        1.65062417990000       -0.65805542250000
C            0.69866858150000        0.39093481340000       -0.29529687550000
C            2.12727219840000        0.11672848360000       -0.47113717330000
C            2.90435142930000       -0.49319024470000        0.40899264050000
F            2.56525014760000       -0.96571263210000        1.59435897770000
F            4.20638571180000       -0.69584128370000        0.21156596980000
C           -0.19181629510000       -0.55620363580000        0.22738937620000
O            0.22263491490000       -1.82874195560000        0.53307565840000
C            0.53288316770000       -2.66468656260000       -0.57182824850000
C           -0.70303536300000       -3.04446363690000       -1.38031060930000
H           -4.34397897510000       -1.95239438620000        1.45520804410000
H           -4.30404024930000       -0.41854055370000        0.46497900460000
H           -1.92045284690000       -2.00412726220000        1.56120833020000
H           -2.99182082110000        1.35934228190000        0.31593823500000
H            0.90774698260000        2.37638033420000       -1.07685936360000
H            2.60559491030000        0.49557185900000       -1.36214068430000
H            0.98546518110000       -3.55157889670000       -0.12253010960000
H            1.26985584970000       -2.18287425780000       -1.22815979230000
H           -1.44046607820000       -3.52302131070000       -0.74125699830000
H           -0.42191991880000       -3.73145075260000       -2.17357555000000
H           -1.15271852130000       -2.15831345220000       -1.82427444780000
$end

$rem
BASIS = 6-31G*
GUI = 2
METHOD = B3LYP
PRINT_ORBITALS false
MOLDEN_FORMAT false
$end
--------------------------------------------------------------

             Standard Nuclear Orientation (Angstroms)
    I     Atom           X                Y                Z
 ----------------------------------------------------------------
    1      C       2.3190027078    -3.1345045434    -0.8338048317
    2      C       1.2171493579    -2.3981215334    -0.8923402681
    3      C       1.0936352772    -1.0109961953    -0.4541183817
    4      C       2.2023890095    -0.1792013348    -0.3232269917
    5      C       2.0471237202     1.1260087549     0.1040973535
    6      Cl      3.4383860026     2.1346795116     0.2955625135
    7      C       0.7924100712     1.6434506856     0.3667562734
    8      C      -0.3360671975     0.8442914609     0.2016145215
    9      C      -1.6480850788     1.4591619938     0.4196982733
   10      C      -2.7080582405     1.2981268908    -0.3555475376
   11      F      -2.8011491077     0.5734161358    -1.4553151728
   12      F      -3.8738905367     1.9015071572    -0.1272816442
   13      C      -0.1853554155    -0.4977993167    -0.1716330887
   14      O      -1.2703442629    -1.3320329912    -0.2785024532
   15      C      -1.8985634186    -1.6957130679     0.9417219123
   16      C      -1.0263128981    -2.6087216681     1.7966858261
   17      H       2.3276742148    -4.1540482530    -1.1785432174
   18      H       3.2476073759    -2.7630863299    -0.4343630376
   19      H       0.2992437993    -2.8257967545    -1.2713292689
   20      H       3.1859850715    -0.5526005224    -0.5566558906
   21      H       0.6811606379     2.6723043926     0.6708307500
   22      H      -1.7482178990     2.1506512273     1.2431168999
   23      H      -2.8101140506    -2.2130955481     0.6340400584
   24      H      -2.1737946413    -0.8022441525     1.5179197930
   25      H      -0.7473390504    -3.4976584346     1.2370644880
   26      H      -1.5742303162    -2.9069645912     2.6861149228
   27      H      -0.1180336516    -2.0909511962     2.0992143891
 ----------------------------------------------------------------

    9   -1198.9397283206      4.98e-06  Convergence criterion met
 Total energy in the final basis set =    -1198.9397283206

                    Orbital Energies (a.u.)
 --------------------------------------------------------------

 Alpha MOs
 -- Occupied --
******** -24.7411 -24.7372 -19.1703 -10.3613 -10.2522 -10.2504 -10.2415
-10.2168 -10.2074 -10.2073 -10.2047 -10.2019 -10.1931 -10.1854 -10.1794
 -9.4663  -7.2302  -7.2207  -7.2202  -1.2867  -1.2257  -1.0639  -0.9010
 -0.8524  -0.8233  -0.7815  -0.7692  -0.7389  -0.7217  -0.6589  -0.6413
 -0.6319  -0.5948  -0.5781  -0.5617  -0.5331  -0.5266  -0.5182  -0.4985
 -0.4843  -0.4775  -0.4605  -0.4493  -0.4435  -0.4393  -0.4303  -0.4264
 -0.4159  -0.4077  -0.4015  -0.3883  -0.3864  -0.3748  -0.3612  -0.3479
 -0.3313  -0.3157  -0.3115  -0.2841  -0.2691  -0.2327  -0.2271

          Ground-State Mulliken Net Atomic Charges

     Atom                 Charge (a.u.)
  ----------------------------------------
      1 C                    -0.348812
      2 C                    -0.105814
      3 C                     0.137893
      4 C                    -0.207703
      5 C                    -0.061406
      6 Cl                   -0.017135
      7 C                    -0.199838
      8 C                     0.168602
      9 C                    -0.359526
     10 C                     0.588378
     11 F                    -0.222193
     12 F                    -0.247362
     13 C                     0.221794
     14 O                    -0.531252
     15 C                    -0.042223
     16 C                    -0.462359
     17 H                     0.148170
     18 H                     0.144901
     19 H                     0.154456
     20 H                     0.152080
     21 H                     0.152816
     22 H                     0.170894
     23 H                     0.152331
     24 H                     0.140465
     25 H                     0.161636
     26 H                     0.148558
     27 H                     0.162649
  ----------------------------------------
  Sum of atomic charges =     0.000000

                    Cartesian Multipole Moments
 -----------------------------------------------------------------
    Charge (ESU x 10^10)
                 0.0000
    Dipole Moment (Debye)
         X      -0.7657      Y      -1.1539      Z       1.5292
       Tot       2.0630
    Quadrupole Moments (Debye-Ang)
        XX    -100.8665     XY      -2.8003     YY     -93.0037
        XZ      -4.2754     YZ       0.7483     ZZ     -98.3373

 Total job time:  73.40s(wall), 70.93s(cpu)
        *  Thank you very much for using Q-Chem.  Have a nice day.  *
