 Q-Chem 5.4, Q-Chem, Inc., Pleasanton, CA (2021)
 Q-Chem 5.4.2 for Intel X86 EM64T Linux

User input:
--------------------------------------------------------------
$molecule
0 1
C           -4.40749176020000        0.35957725280000        0.64524375350000
C           -3.35461658860000        0.74108155450000       -0.06255614100000
C           -2.08565037760000        0.00636907310000       -0.11539459500000
C           -2.10939590030000       -1.38564157140000       -0.17286472210000
C           -0.93740573870000       -2.11020294240000       -0.26589139610000
C            0.27527750290000       -1.45158508420000       -0.31977916280000
C            0.32552382390000       -0.05994581570000       -0.25999082400000
C            1.60764086910000        0.63653999720000       -0.36349141470000
C            2.77569386980000        0.18978369350000        0.06579072290000
F            3.02112202850000       -0.94321263930000        0.71412706860000
F            3.91914710720000        0.86039330710000       -0.08087059250000
C           -0.85898491330000        0.67915536900000       -0.13827318610000
C           -0.80573085260000        2.17261941250000        0.01413203550000
H           -5.32821122840000        0.91775112730000        0.63892297890000
H           -4.38395737340000       -0.51505229770000        1.27400101200000
H           -3.40984549660000        1.63909767900000       -0.66432168590000
H           -3.06121665150000       -1.89496406240000       -0.16528792100000
H           -0.96800431350000       -3.18827763180000       -0.31287251520000
H            1.18718776860000       -2.01719204850000       -0.42616762510000
H            1.62303936340000        1.60324219790000       -0.84313870190000
H            0.04891001220000        2.46759504190000        0.61840605270000
H           -1.70361578860000        2.54238690130000        0.50068492940000
H           -0.71923997730000        2.65502542850000       -0.96079290320000
$end

$rem
BASIS = 6-31G*
GUI = 2
METHOD = B3LYP
PRINT_ORBITALS false
MOLDEN_FORMAT false
$end
--------------------------------------------------------------

             Standard Nuclear Orientation (Angstroms)
    I     Atom           X                Y                Z
 ----------------------------------------------------------------
    1      C      -4.2900269994     0.3142251635     0.6143084458
    2      C      -3.2335181089     0.7000459815    -0.0856941331
    3      C      -1.9600485858    -0.0276143455    -0.1263807358
    4      C      -1.9754924878    -1.4198644252    -0.1808004126
    5      C      -0.7987201768    -2.1380127301    -0.2624950980
    6      C       0.4106434293    -1.4726884582    -0.3079406752
    7      C       0.4525698009    -0.0806549417    -0.2509840236
    8      C       1.7315595686     0.6228150056    -0.3455577235
    9      C       2.8985298357     0.1836372784     0.0943575872
   10      F       3.1449750568    -0.9464727227     0.7473291232
   11      F       4.0393637695     0.8603506238    -0.0444555434
   12      C      -0.7370385877     0.6520278061    -0.1407362752
   13      C      -0.6934401888     2.1461127025     0.0086213422
   14      H      -5.2137870820     0.8671797727     0.5991138589
   15      H      -4.2667559497    -0.5588194309     1.2452743740
   16      H      -3.2888359720     1.5963595480    -0.6899845331
   17      H      -2.9244645026    -1.9345301349    -0.1798662711
   18      H      -0.8228683970    -3.2163473778    -0.3072140548
   19      H       1.3265650974    -2.0333831287    -0.4055063457
   20      H       1.7454733162     1.5884907382    -0.8273134351
   21      H       0.1545212659     2.4472846222     0.6192157770
   22      H      -1.5973680473     2.5119188867     0.4869092626
   23      H      -0.6016341597     2.6267711741    -0.9666806410
 ----------------------------------------------------------------

    9    -624.8252695843      4.97e-06  Convergence criterion met
 Total energy in the final basis set =     -624.8252695843

                    Orbital Energies (a.u.)
 --------------------------------------------------------------

 Alpha MOs
 -- Occupied --
-24.7400 -24.7323 -10.3547 -10.1997 -10.1994 -10.1955 -10.1915 -10.1903
-10.1840 -10.1832 -10.1826 -10.1821 -10.1811  -1.2820  -1.2215  -0.8715
 -0.8135  -0.7863  -0.7658  -0.7221  -0.6878  -0.6437  -0.6206  -0.5889
 -0.5674  -0.5637  -0.5172  -0.5152  -0.4954  -0.4784  -0.4595  -0.4386
 -0.4360  -0.4356  -0.4246  -0.4199  -0.4132  -0.4043  -0.3931  -0.3736
 -0.3612  -0.3409  -0.3329  -0.2983  -0.2764  -0.2309  -0.2204

          Ground-State Mulliken Net Atomic Charges

     Atom                 Charge (a.u.)
  ----------------------------------------
      1 C                    -0.335419
      2 C                    -0.138207
      3 C                     0.094031
      4 C                    -0.175499
      5 C                    -0.135343
      6 C                    -0.179374
      7 C                     0.121233
      8 C                    -0.320053
      9 C                     0.554172
     10 F                    -0.235925
     11 F                    -0.249585
     12 C                     0.063576
     13 C                    -0.541286
     14 H                     0.142634
     15 H                     0.146299
     16 H                     0.138433
     17 H                     0.128316
     18 H                     0.128311
     19 H                     0.132447
     20 H                     0.165708
     21 H                     0.167200
     22 H                     0.167270
     23 H                     0.161061
  ----------------------------------------
  Sum of atomic charges =     0.000000

                    Cartesian Multipole Moments
 -----------------------------------------------------------------
    Charge (ESU x 10^10)
                 0.0000
    Dipole Moment (Debye)
         X      -1.0690      Y       0.5776      Z      -0.3765
       Tot       1.2721
    Quadrupole Moments (Debye-Ang)
        XX     -74.1605     XY      -0.4077     YY     -68.5842
        XZ      -1.5420     YZ      -0.9576     ZZ     -75.8106

 Total job time:  51.23s(wall), 49.45s(cpu)
        *  Thank you very much for using Q-Chem.  Have a nice day.  *
