 Q-Chem 5.2, Q-Chem, Inc., Pleasanton, CA (2019)
 Q-Chem 5.2.1 for Intel X86 EM64T Linux

User input:
--------------------------------------------------------------
$molecule
0 1
C        -2.50384911830000   -1.75425129910000   -0.76498070420000
C        -2.50082092790000   -0.64432408940000   -0.03854662390000
C        -1.37520744650000    0.28243789830000    0.07253038730000
C        -1.63365731370000    1.65374636610000    0.15432471640000
N        -0.69441009980000    2.57594432880000    0.20867083150000
C         0.56608164520000    2.19486981440000    0.16595699280000
C         0.97750554820000    0.86113260070000    0.07489361940000
C         2.39122880310000    0.50029465330000    0.05805590320000
C         3.35361590700000    1.27683642440000   -0.42224333090000
C        -0.03054144430000   -0.11467136030000    0.05531881990000
C         0.35061404970000   -1.56429995370000    0.04256539620000
O         1.05346638570000   -2.06951817670000   -0.78484750480000
O        -0.12106801430000   -2.28072415460000    1.08382224680000
H        -3.38015272050000   -2.37529862660000   -0.83492997550000
H        -1.64583080560000   -2.07699602550000   -1.33066597300000
H        -3.40276189660000   -0.32611862730000    0.47000098350000
H        -2.65277303670000    2.01706999390000    0.17186859030000
H         1.29516899690000    2.98981469600000    0.23474072100000
H         2.63627053940000   -0.48067157840000    0.44106679700000
H         3.15379197830000    2.24071481790000   -0.85927217430000
H         4.38163057300000    0.95936160910000   -0.41608143560000
H        -0.70938535350000   -1.76727740110000    1.65290341900000
$end

$rem
BASIS = 6-31G*
GUI = 2
METHOD = B3LYP
PRINT_ORBITALS false
MOLDEN_FORMAT false
--------------------------------------------------------------

             Standard Nuclear Orientation (Angstroms)
    I     Atom           X                Y                Z
 ----------------------------------------------------------------
    1      C       3.0534155413    -0.1023258415     0.7791992940
    2      C       2.4370107243     0.8500327632     0.0916585726
    3      C       0.9866616233     0.9972576022    -0.0225514349
    4      C       0.4372540619     2.2823358355    -0.0489867471
    5      N      -0.8562217683     2.5269107989    -0.1008642531
    6      C      -1.6904521092     1.5071828187    -0.1106765651
    7      C      -1.2890440685     0.1676861964    -0.0784662431
    8      C      -2.2615865304    -0.9193658432    -0.1182154254
    9      C      -3.4966729363    -0.8330729365     0.3582386841
   10      C       0.0916657007    -0.0814551498    -0.0610190292
   11      C       0.5833389352    -1.4966286008    -0.1100776992
   12      O       0.2759506399    -2.3449908806     0.6771026142
   13      O       1.3813348340    -1.7804223716    -1.1601382095
   14      H       4.1266409556    -0.1328646270     0.8550628525
   15      H       2.5172517553    -0.8736747283     1.3063697559
   16      H       3.0117821459     1.6394395490    -0.3772205541
   17      H       1.0808333829     3.1518160176    -0.0221805277
   18      H      -2.7384229398     1.7638599547    -0.1747930100
   19      H      -1.9155316257    -1.8518335368    -0.5422290434
   20      H      -3.8711029439     0.0575657625     0.8342116320
   21      H      -4.1730407516    -1.6683870558     0.3090524938
   22      H       1.5873129535    -1.0008719761    -1.6925595052
 ----------------------------------------------------------------

    9    -591.6305636384      6.58e-06  Convergence criterion met
 Total energy in the final basis set =     -591.6305636384

                    Orbital Energies (a.u.)
 --------------------------------------------------------------

 Alpha MOs
 -- Occupied --
-19.2015 -19.1457 -14.3408 -10.3311 -10.2331 -10.2317 -10.2307 -10.2252
-10.2229 -10.2122 -10.2021 -10.2020 -10.1924  -1.1132  -1.0328  -0.9646
 -0.8530  -0.8287  -0.7723  -0.7487  -0.6829  -0.6622  -0.6285  -0.6085
 -0.5672  -0.5599  -0.5287  -0.4876  -0.4752  -0.4718  -0.4586  -0.4514
 -0.4416  -0.4327  -0.4172  -0.4022  -0.3901  -0.3821  -0.3639  -0.3382
 -0.3266  -0.3177  -0.2865  -0.2679  -0.2594  -0.2424

          Ground-State Mulliken Net Atomic Charges

     Atom                 Charge (a.u.)
  ----------------------------------------
      1 C                    -0.328612
      2 C                    -0.175397
      3 C                     0.095572
      4 C                    -0.009927
      5 N                    -0.396705
      6 C                    -0.012376
      7 C                     0.108766
      8 C                    -0.109964
      9 C                    -0.338595
     10 C                    -0.030434
     11 C                     0.513725
     12 O                    -0.432541
     13 O                    -0.554435
     14 H                     0.158534
     15 H                     0.184619
     16 H                     0.146616
     17 H                     0.147790
     18 H                     0.150000
     19 H                     0.158326
     20 H                     0.151744
     21 H                     0.155125
     22 H                     0.418170
  ----------------------------------------
  Sum of atomic charges =     0.000000

                    Cartesian Multipole Moments
 -----------------------------------------------------------------
    Charge (ESU x 10^10)
                 0.0000
    Dipole Moment (Debye)
         X       0.9622      Y       1.5581      Z      -1.5706
       Tot       2.4125
    Quadrupole Moments (Debye-Ang)
        XX     -62.3741     XY       6.3982     YY     -86.8108
        XZ      -1.5459     YZ       1.6673     ZZ     -73.9530

 Total job time:  33.03s(wall), 32.82s(cpu)
        *  Thank you very much for using Q-Chem.  Have a nice day.  *
