 Q-Chem 5.2, Q-Chem, Inc., Pleasanton, CA (2019)
 Q-Chem 5.2.1 for Intel X86 EM64T Linux

User input:
--------------------------------------------------------------
$molecule
0 1
C        -3.54101524820000    0.43710803400000    0.76527495260000
C        -2.50283322760000   -0.13012608970000    0.16672251370000
C        -1.18532012500000    0.49179924300000    0.01654603740000
C        -1.07835811140000    1.86301560110000   -0.18005643920000
C         0.15846456560000    2.44561620450000   -0.38827337610000
C         1.29593092380000    1.66863276160000   -0.35529162730000
C         1.21725679340000    0.29173569470000   -0.13553536810000
O         2.43422095750000   -0.33289243520000   -0.08655048950000
C         2.62709005820000   -1.47187785220000    0.71824421330000
C        -0.03315569580000   -0.31670809140000    0.01358351230000
C        -0.21209370430000   -1.77506360460000    0.13067190480000
C         0.17829116580000   -2.63177056950000   -0.80016988930000
H        -4.49188543400000   -0.06229646510000    0.84136469710000
H        -3.47880650230000    1.41355975450000    1.21606477730000
H        -2.60089157060000   -1.12598818190000   -0.24634065030000
H        -1.97283371410000    2.46574397340000   -0.20716552730000
H         0.23625331890000    3.50805756080000   -0.56396043920000
H         2.27512986490000    2.09978821830000   -0.49262289440000
H         3.65968509480000   -1.41905195530000    1.06891211420000
H         2.48806605510000   -2.39588038930000    0.14913896350000
H         1.95353701150000   -1.47968038930000    1.57826554770000
H        -0.74142320820000   -2.12410790150000    1.01004457190000
H         0.67704911620000   -2.29997002270000   -1.69662410180000
H         0.00849187950000   -3.69164629700000   -0.70778664000000
$end

$rem
BASIS = 6-31G*
GUI = 2
METHOD = B3LYP
PRINT_ORBITALS false
MOLDEN_FORMAT false
--------------------------------------------------------------

             Standard Nuclear Orientation (Angstroms)
    I     Atom           X                Y                Z
 ----------------------------------------------------------------
    1      C       3.4631791812     0.9753834328     0.5481901262
    2      C       2.2631346578     1.0584727325    -0.0093318833
    3      C       1.2834932644    -0.0297526371    -0.0447318040
    4      C       1.7069810686    -1.3472680200    -0.1677724579
    5      C       0.7841386623    -2.3723569155    -0.2680856660
    6      C      -0.5628984241    -2.0904759917    -0.1998579943
    7      C      -1.0137091315    -0.7769710687    -0.0522013373
    8      O      -2.3744593792    -0.6647797022     0.0444084780
    9      C      -2.9598340016     0.3659653237     0.8040676296
   10      C      -0.0907257785     0.2730430784    -0.0129114472
   11      C      -0.4847941864     1.6929078838     0.0220646816
   12      C      -1.2132969291     2.2679490882    -0.9220883692
   13      H       4.1493560829     1.8050987145     0.5391113604
   14      H       3.8015199712     0.0833724628     1.0485712768
   15      H       1.9518498750     1.9847116274    -0.4753374802
   16      H       2.7630130742    -1.5613943712    -0.2229929787
   17      H       1.1160061499    -3.3928547183    -0.3870263018
   18      H      -1.3040352307    -2.8724258960    -0.2533000396
   19      H      -3.8766504728    -0.0542611379     1.2222402505
   20      H      -3.2119135808     1.2309339445     0.1833629348
   21      H      -2.3074358811     0.6908050361     1.6178410229
   22      H      -0.0963953799     2.2780924291     0.8479117302
   23      H      -1.5808836183     1.7091841739    -1.7677496770
   24      H      -1.4627662540     3.3155939144    -0.8919487916
 ----------------------------------------------------------------

    9    -501.5508258159      2.38e-06  Convergence criterion met
 Total energy in the final basis set =     -501.5508258159

                    Orbital Energies (a.u.)
 --------------------------------------------------------------

 Alpha MOs
 -- Occupied --
-19.1677 -10.2423 -10.2289 -10.1927 -10.1917 -10.1911 -10.1859 -10.1828
-10.1822 -10.1776 -10.1769 -10.1762  -1.0565  -0.8620  -0.7964  -0.7847
 -0.7429  -0.7201  -0.6829  -0.6227  -0.6151  -0.5634  -0.5529  -0.5106
 -0.4941  -0.4824  -0.4660  -0.4559  -0.4486  -0.4317  -0.4256  -0.4084
 -0.3860  -0.3707  -0.3670  -0.3579  -0.3374  -0.3341  -0.3084  -0.2822
 -0.2666  -0.2257  -0.2126

          Ground-State Mulliken Net Atomic Charges

     Atom                 Charge (a.u.)
  ----------------------------------------
      1 C                    -0.338450
      2 C                    -0.133941
      3 C                     0.108615
      4 C                    -0.192963
      5 C                    -0.128032
      6 C                    -0.170081
      7 C                     0.303926
      8 O                    -0.514573
      9 C                    -0.202172
     10 C                     0.038251
     11 C                    -0.168498
     12 C                    -0.321268
     13 H                     0.141389
     14 H                     0.144126
     15 H                     0.143056
     16 H                     0.125770
     17 H                     0.128684
     18 H                     0.134598
     19 H                     0.153525
     20 H                     0.154495
     21 H                     0.147299
     22 H                     0.147378
     23 H                     0.155845
     24 H                     0.143021
  ----------------------------------------
  Sum of atomic charges =     0.000000

                    Cartesian Multipole Moments
 -----------------------------------------------------------------
    Charge (ESU x 10^10)
                 0.0000
    Dipole Moment (Debye)
         X      -0.1937      Y       1.0417      Z       0.6932
       Tot       1.2661
    Quadrupole Moments (Debye-Ang)
        XX     -66.6337     XY      -3.2552     YY     -65.1561
        XZ      -0.7364     YZ       0.3212     ZZ     -72.0017

 Total job time:  34.92s(wall), 34.80s(cpu)
        *  Thank you very much for using Q-Chem.  Have a nice day.  *
