 Q-Chem 5.2, Q-Chem, Inc., Pleasanton, CA (2019)
 Q-Chem 5.2.1 for Intel X86 EM64T Linux

User input:
--------------------------------------------------------------
$molecule
0 1
C        -0.64259023040000   -2.36714480190000    0.64318592240000
C        -1.11738378350000   -1.53853387900000   -0.27450636460000
C        -1.15769844610000   -0.07941677120000   -0.14662668500000
N        -2.28761742000000    0.47608603990000   -0.57153367230000
C        -2.49011189150000    1.76650824420000   -0.40375737840000
C        -1.57856084730000    2.59845367350000    0.23025547040000
C        -0.37472229230000    2.04793997630000    0.63029890840000
C        -0.12437558550000    0.69339670910000    0.41714658880000
C         1.20085386940000    0.17249093130000    0.75487728230000
C         1.92952579970000   -0.61301068410000   -0.01872417840000
F         1.58857734080000   -1.09621787960000   -1.20549752100000
F         3.15243097020000   -1.03456559560000    0.29482542780000
H        -0.69009362420000   -3.43455687780000    0.51410813760000
H        -0.20037456220000   -2.01659849280000    1.56181342640000
H        -1.60750927810000   -1.91769317490000   -1.15981132790000
H        -3.42945784940000    2.14461040090000   -0.78502203110000
H        -1.79329470820000    3.64363740360000    0.38660762130000
H         0.38648650190000    2.66474103500000    1.08706686990000
H         1.65814986860000    0.51859226480000    1.67003137920000
$end

$rem
BASIS = 6-31G*
GUI = 2
METHOD = B3LYP
PRINT_ORBITALS false
MOLDEN_FORMAT false
--------------------------------------------------------------

             Standard Nuclear Orientation (Angstroms)
    I     Atom           X                Y                Z
 ----------------------------------------------------------------
    1      C       0.9308310105     2.1400343228    -0.9909046673
    2      C       0.0461035898     1.9072710305    -0.0331663137
    3      C      -0.8355881563     0.7385712121     0.0281657167
    4      N      -2.0845027629     1.0137001233     0.3892233244
    5      C      -2.9987985984     0.0660449238     0.3703789835
    6      C      -2.7329566017    -1.2326209740    -0.0392863857
    7      C      -1.4273545838    -1.5497078472    -0.3666800864
    8      C      -0.4375781360    -0.5701344434    -0.3060716911
    9      C       0.9482538708    -0.9695492380    -0.5542156610
   10      C       1.9848523540    -0.6221397212     0.1882161555
   11      F       1.9694096964     0.1668100283     1.2538079296
   12      F       3.2292204702    -1.0384385298    -0.0348583795
   13      H       1.5126934539     3.0452248994    -1.0096744233
   14      H       1.1012730388     1.4461627685    -1.7982495033
   15      H      -0.1459782555     2.6456831969     0.7320798477
   16      H      -3.9887224823     0.3667427452     0.6871223011
   17      H      -3.5143314277    -1.9747238299    -0.0805463949
   18      H      -1.1611498870    -2.5590692218    -0.6474718597
   19      H       1.1334749076    -1.6678804995    -1.3569854921
 ----------------------------------------------------------------

    9    -601.5417646973      4.64e-06  Convergence criterion met
 Total energy in the final basis set =     -601.5417646973

                    Orbital Energies (a.u.)
 --------------------------------------------------------------

 Alpha MOs
 -- Occupied --
-24.7400 -24.7364 -14.3252 -10.3580 -10.2299 -10.2204 -10.2142 -10.2086
-10.2045 -10.1985 -10.1879 -10.1819  -1.2843  -1.2243  -0.9523  -0.8364
 -0.8061  -0.7747  -0.7376  -0.6599  -0.6365  -0.6198  -0.5767  -0.5733
 -0.5343  -0.5201  -0.5086  -0.4859  -0.4722  -0.4421  -0.4413  -0.4404
 -0.4280  -0.4149  -0.4104  -0.4004  -0.3824  -0.3560  -0.3069  -0.2958
 -0.2651  -0.2526  -0.2241

          Ground-State Mulliken Net Atomic Charges

     Atom                 Charge (a.u.)
  ----------------------------------------
      1 C                    -0.335209
      2 C                    -0.092424
      3 C                     0.222514
      4 N                    -0.468133
      5 C                     0.043224
      6 C                    -0.145652
      7 C                    -0.140294
      8 C                     0.129139
      9 C                    -0.358089
     10 C                     0.586068
     11 F                    -0.230101
     12 F                    -0.245861
     13 H                     0.148178
     14 H                     0.149462
     15 H                     0.149724
     16 H                     0.140926
     17 H                     0.137786
     18 H                     0.141271
     19 H                     0.167468
  ----------------------------------------
  Sum of atomic charges =     0.000000

                    Cartesian Multipole Moments
 -----------------------------------------------------------------
    Charge (ESU x 10^10)
                -0.0000
    Dipole Moment (Debye)
         X      -0.2793      Y      -1.8574      Z      -1.0151
       Tot       2.1350
    Quadrupole Moments (Debye-Ang)
        XX     -65.9651     XY       6.0303     YY     -63.5660
        XZ      -1.5945     YZ       1.2249     ZZ     -66.8749

 Total job time:  24.66s(wall), 24.46s(cpu)
        *  Thank you very much for using Q-Chem.  Have a nice day.  *
