 Q-Chem 5.4, Q-Chem, Inc., Pleasanton, CA (2021)
 Q-Chem 5.4.2 for Intel X86 EM64T Linux

User input:
--------------------------------------------------------------
$molecule
0 1
C           -1.23298524460000        3.73633451780000       -0.02713943790000
C           -1.98633698160000        2.64421577210000        0.01597302300000
C           -1.52114381840000        1.26120499410000        0.01062217930000
C           -2.46933482120000        0.23589880770000        0.00618250700000
C           -2.10240395830000       -1.09948285770000       -0.00080465240000
C           -3.10804452320000       -2.20791119630000       -0.00650077630000
C           -0.74522212470000       -1.39090307460000       -0.00183973170000
F           -0.37203704830000       -2.69183633320000       -0.00810591340000
C            0.24492447410000       -0.40496154140000        0.00417861380000
C            1.63744541270000       -0.82478363590000        0.00368718240000
C            2.72130026510000       -0.06424129940000        0.00127160530000
F            2.79058283760000        1.26227061210000       -0.00107965030000
F            3.95625007500000       -0.55849816910000        0.00039448770000
C           -0.17080580900000        0.92429277690000        0.01082890140000
H           -1.67527442900000        4.71757891770000       -0.02011385200000
H           -0.15815133460000        3.70614223150000       -0.07257935210000
H           -3.06332261630000        2.75227700670000        0.05590531870000
H           -3.52014783170000        0.48760058870000        0.00699230010000
H           -4.11945339350000       -1.81186807970000       -0.00732022960000
H           -2.97500351960000       -2.84104789970000        0.86991431420000
H           -2.97126118840000       -2.83533902120000       -0.88640982960000
H            1.81876082040000       -1.88999246270000        0.00427994520000
H            0.56743765510000        1.70628236790000        0.01889419660000
$end

$rem
BASIS = 6-31G*
GUI = 2
METHOD = B3LYP
PRINT_ORBITALS false
MOLDEN_FORMAT false
$end
--------------------------------------------------------------

             Standard Nuclear Orientation (Angstroms)
    I     Atom           X                Y                Z
 ----------------------------------------------------------------
    1      C      -1.1056005870    -3.7128705694     0.0263157513
    2      C      -1.8643543420    -2.6244870896    -0.0165213674
    3      C      -1.4060158676    -1.2391905772    -0.0109054554
    4      C      -2.3592727610    -0.2185938140    -0.0061930925
    5      C      -1.9989594023     1.1185871841     0.0010548518
    6      C      -3.0100767368     2.2220202957     0.0070446292
    7      C      -0.6432373995     1.4167250062     0.0020716024
    8      F      -0.2764993429     2.7194891468     0.0085909155
    9      C       0.3517795288     0.4357005298    -0.0042135807
   10      C       1.7422042656     0.8624137827    -0.0037154059
   11      C       2.8298125236     0.1072480401    -0.0015245206
   12      F       2.9056638829    -1.2189049507     0.0005421265
   13      F       4.0622994523     0.6076147057    -0.0006156352
   14      C      -0.0573629767    -0.8955949453    -0.0111204824
   15      H      -1.5430251954    -4.6962918547     0.0191087121
   16      H      -0.0309266616    -3.6773651660     0.0716987264
   17      H      -2.9407939927    -2.7378723040    -0.0564130648
   18      H      -3.4088263888    -0.4754964529    -0.0069942069
   19      H      -4.0195117655     1.8209728984     0.0078399148
   20      H      -2.8802254990     2.8559931859    -0.8692443844
   21      H      -2.8763496300     2.8499320062     0.8870782893
   22      H       1.9182420111     1.9285076070    -0.0040935836
   23      H       0.6847437202    -1.6739170961    -0.0193946433
 ----------------------------------------------------------------

    9    -724.0688259752      5.38e-06  Convergence criterion met
 Total energy in the final basis set =     -724.0688259752

                    Orbital Energies (a.u.)
 --------------------------------------------------------------

 Alpha MOs
 -- Occupied --
-24.7468 -24.7364 -24.7138 -10.3595 -10.2700 -10.2136 -10.2049 -10.2035
-10.1979 -10.1930 -10.1920 -10.1919 -10.1878 -10.1807  -1.2881  -1.2270
 -1.2240  -0.8788  -0.8197  -0.8018  -0.7603  -0.7313  -0.6962  -0.6536
 -0.6276  -0.6132  -0.5795  -0.5562  -0.5394  -0.5253  -0.5215  -0.5025
 -0.4758  -0.4704  -0.4481  -0.4432  -0.4406  -0.4294  -0.4271  -0.4197
 -0.4112  -0.4052  -0.3988  -0.3757  -0.3743  -0.3515  -0.3435  -0.3181
 -0.2799  -0.2319  -0.2173

          Ground-State Mulliken Net Atomic Charges

     Atom                 Charge (a.u.)
  ----------------------------------------
      1 C                    -0.354449
      2 C                    -0.116728
      3 C                     0.199208
      4 C                    -0.265120
      5 C                     0.111877
      6 C                    -0.522630
      7 C                     0.241242
      8 F                    -0.289420
      9 C                     0.133287
     10 C                    -0.298245
     11 C                     0.550968
     12 F                    -0.234052
     13 F                    -0.245586
     14 C                    -0.272863
     15 H                     0.144793
     16 H                     0.146516
     17 H                     0.126982
     18 H                     0.126994
     19 H                     0.156825
     20 H                     0.172010
     21 H                     0.172025
     22 H                     0.174878
     23 H                     0.141489
  ----------------------------------------
  Sum of atomic charges =     0.000000

                    Cartesian Multipole Moments
 -----------------------------------------------------------------
    Charge (ESU x 10^10)
                 0.0000
    Dipole Moment (Debye)
         X      -1.4769      Y      -0.1290      Z      -0.0054
       Tot       1.4825
    Quadrupole Moments (Debye-Ang)
        XX     -74.4289     XY      -0.4794     YY     -75.8590
        XZ       0.0916     YZ      -0.0183     ZZ     -80.4140

 Total job time:  59.52s(wall), 54.41s(cpu)
        *  Thank you very much for using Q-Chem.  Have a nice day.  *
