 Q-Chem 5.2, Q-Chem, Inc., Pleasanton, CA (2019)
 Q-Chem 5.2.1 for Intel X86 EM64T Linux

User input:
--------------------------------------------------------------
$molecule
0 1
C         3.83149952010000    0.67090754000000    0.41596965520000
C         3.18456457990000   -0.48688495910000    0.33750269610000
C         1.80068807770000   -0.65529112170000   -0.03307716040000
N         1.35616842610000   -1.83189626630000   -0.53927281400000
N         0.06613543680000   -1.80607471930000   -0.85526961400000
C        -0.36198892900000   -0.59242229600000   -0.53736182890000
N        -1.69295711580000   -0.25131874210000   -0.75892040940000
C        -2.64085512190000    0.11288700430000    0.15812183060000
C        -2.16284350470000    0.30125409530000    1.57456632060000
O        -3.78954176820000    0.27260553650000   -0.18886381080000
C         0.69458927250000    0.20034728610000   -0.01538651090000
C         0.66707449560000    1.57716965380000    0.43340874840000
C        -0.15346944800000    2.50932196210000   -0.03535378390000
H         4.86758457700000    0.71105382380000    0.70401137480000
H         3.36026352370000    1.60771086930000    0.17765323030000
H         3.71246246010000   -1.41250827370000    0.53685771540000
H         1.90016435840000   -2.65908182340000   -0.72763776770000
H        -2.07415902580000   -0.57947269070000   -1.63815849630000
H        -1.46010775180000   -0.48099164110000    1.85031699530000
H        -3.02316394340000    0.28153046980000    2.23750966420000
H        -1.66636735210000    1.26485660160000    1.66841553290000
H         1.39219133180000    1.82447409110000    1.19901736020000
H        -0.87334030560000    2.29933618530000   -0.80797518880000
H        -0.12620717620000    3.51982544570000    0.33491733730000
$end

$rem
BASIS = 6-31G*
GUI = 2
METHOD = B3LYP
PRINT_ORBITALS false
MOLDEN_FORMAT false
--------------------------------------------------------------

             Standard Nuclear Orientation (Angstroms)
    I     Atom           X                Y                Z
 ----------------------------------------------------------------
    1      C       3.7351634109    -1.0193893242    -0.0760496036
    2      C       3.1851816715     0.1528792324    -0.3734918150
    3      C       1.8197164833     0.5345418392    -0.1077048452
    4      N       1.4729862923     1.8407476464     0.0010884929
    5      N       0.1851517035     2.0141284552     0.2769997294
    6      C      -0.3408765542     0.7987906512     0.3366347130
    7      N      -1.6953150128     0.6473253404     0.6185405038
    8      C      -2.6697955033     0.0931182691    -0.1659116753
    9      C      -2.2087288259    -0.5593585583    -1.4434028764
   10      O      -3.8277218568     0.1380986753     0.1841931367
   11      C       0.6472823338    -0.1960208967     0.1103796909
   12      C       0.5071679861    -1.6376036303     0.1057675716
   13      C      -0.3869616631    -2.3129781934     0.8173432674
   14      H       4.7645002789    -1.2269231965    -0.3115221191
   15      H       3.1888015361    -1.7974143500     0.4265678666
   16      H       3.7870977180     0.9279037419    -0.8341773898
   17      H       2.0828653227     2.6407171700    -0.0601095928
   18      H      -2.0484222259     1.2591848587     1.3444900541
   19      H      -1.4442954641     0.0425643841    -1.9282892260
   20      H      -3.0645087468    -0.6780457589    -2.1018770451
   21      H      -1.7928020067    -1.5405419751    -1.2240629155
   22      H       1.2096481594    -2.1645576751    -0.5282288779
   23      H      -1.0872690685    -1.8196526139     1.4696095658
   24      H      -0.4424975637    -3.3873104158     0.7762669399
 ----------------------------------------------------------------

    9    -589.0073743654      6.67e-06  Convergence criterion met
 Total energy in the final basis set =     -589.0073743654

                    Orbital Energies (a.u.)
 --------------------------------------------------------------

 Alpha MOs
 -- Occupied --
-19.1035 -14.4223 -14.3595 -14.3569 -10.2814 -10.2498 -10.2401 -10.2166
-10.2006 -10.1995 -10.1991 -10.1831 -10.1747  -1.0700  -1.0326  -0.9346
 -0.8446  -0.8216  -0.7832  -0.7497  -0.7335  -0.6511  -0.6400  -0.6132
 -0.5811  -0.5506  -0.5306  -0.5113  -0.4801  -0.4702  -0.4663  -0.4466
 -0.4452  -0.4378  -0.4217  -0.3979  -0.3910  -0.3798  -0.3732  -0.3595
 -0.3242  -0.3131  -0.3030  -0.2786  -0.2455  -0.2294  -0.2229

          Ground-State Mulliken Net Atomic Charges

     Atom                 Charge (a.u.)
  ----------------------------------------
      1 C                    -0.348073
      2 C                    -0.107917
      3 C                     0.339844
      4 N                    -0.479833
      5 N                    -0.324603
      6 C                     0.432810
      7 N                    -0.672959
      8 C                     0.561961
      9 C                    -0.546003
     10 O                    -0.488685
     11 C                     0.007628
     12 C                    -0.140306
     13 C                    -0.355578
     14 H                     0.152800
     15 H                     0.163623
     16 H                     0.134959
     17 H                     0.345765
     18 H                     0.339429
     19 H                     0.167358
     20 H                     0.178983
     21 H                     0.188134
     22 H                     0.138908
     23 H                     0.166097
     24 H                     0.145657
  ----------------------------------------
  Sum of atomic charges =     0.000000

                    Cartesian Multipole Moments
 -----------------------------------------------------------------
    Charge (ESU x 10^10)
                -0.0000
    Dipole Moment (Debye)
         X       5.7298      Y      -0.0078      Z      -0.7658
       Tot       5.7808
    Quadrupole Moments (Debye-Ang)
        XX     -83.1712     XY       4.9344     YY     -69.8720
        XZ      -0.9697     YZ       0.0498     ZZ     -74.7715

 Total job time:  34.88s(wall), 34.77s(cpu)
        *  Thank you very much for using Q-Chem.  Have a nice day.  *
