 Q-Chem 5.2, Q-Chem, Inc., Pleasanton, CA (2019)
 Q-Chem 5.2.1 for Intel X86 EM64T Linux

User input:
--------------------------------------------------------------
$molecule
0 1
C         4.69446030770000   -0.34993243960000   -0.15204744710000
C         3.57652389160000    0.10401632140000    0.40904162850000
C         2.34445955980000   -0.63109090080000    0.49765598870000
S         2.27441676710000   -2.29888367720000    0.02140999260000
C         0.59569594110000   -2.40322163920000    0.46194104060000
C        -0.10853326650000   -3.64687999890000    0.30436034720000
C         0.40642903000000   -4.74929073150000   -0.23441198120000
C         0.12691562480000   -1.19939354310000    0.94670729240000
C        -1.27872536420000   -0.98343035730000    1.42191028150000
C        -2.16101482280000   -0.28565006660000    0.37613807430000
C        -2.41953316520000   -1.14042291950000   -0.86548711990000
C        -3.50034699600000   -2.20490486300000   -0.66096289280000
C        -4.92805098760000   -1.65467494410000   -0.69329756010000
C        -5.38682294640000   -1.26893563810000   -2.09470860850000
C         1.12282744390000   -0.18848049820000    0.95846752480000
C         0.89421567900000    1.23167721030000    1.38010013730000
C         0.83360819770000    2.17536852810000    0.17207237110000
C         0.53491348780000    3.61176445570000    0.59165460170000
C         0.47146705270000    4.55479123960000   -0.60708737320000
C         0.17343470760000    5.99364864760000   -0.19271203170000
C         0.10742216470000    6.92749757810000   -1.39478837990000
H         5.59285539430000    0.24088720320000   -0.18091871750000
H         4.74089659800000   -1.32792584130000   -0.60173264310000
H         3.56077609540000    1.09255238550000    0.84823159650000
H        -1.13139240690000   -3.65614679900000    0.65358981660000
H         1.41886708490000   -4.77815223870000   -0.60175848660000
H        -0.16872111530000   -5.65362368100000   -0.32537296050000
H        -1.25630360540000   -0.37000241860000    2.32631414540000
H        -1.72713542870000   -1.93823990870000    1.69565833050000
H        -1.67548986090000    0.64285989190000    0.07386460020000
H        -3.11135402910000   -0.02127770200000    0.84429344960000
H        -1.48619654100000   -1.62703035800000   -1.15635517980000
H        -2.71416500440000   -0.49009637010000   -1.69053240350000
H        -3.34011010250000   -2.69982561860000    0.29901724960000
H        -3.40261013930000   -2.96515188110000   -1.43931713810000
H        -5.00457663210000   -0.78606716840000   -0.03619264890000
H        -5.60430736530000   -2.41938395120000   -0.30335842250000
H        -4.77309781770000   -0.47035965810000   -2.50380810460000
H        -6.41840305540000   -0.92443011960000   -2.07331983340000
H        -5.32483272400000   -2.12470503070000   -2.76371093320000
H         1.70082099120000    1.55429831550000    2.04377468390000
H        -0.03973798430000    1.30963668990000    1.93713638830000
H         0.06102156840000    1.83090416810000   -0.51939751850000
H         1.78354849960000    2.14055806260000   -0.36505556790000
H         1.30952780940000    3.95601332390000    1.28161734050000
H        -0.41836307620000    3.64308556680000    1.12572197980000
H        -0.30381048430000    4.21073292690000   -1.29611537180000
H         1.42400034560000    4.52354599650000   -1.14152427350000
H         0.95029285620000    6.33946350100000    0.49319199060000
H        -0.77797834070000    6.02464525810000    0.34353247040000
H         1.05304235210000    6.92400868820000   -1.93266854200000
H        -0.10367934760000    7.94626971470000   -1.07817303150000
H        -0.67610983440000    6.61164977020000   -2.08028053590000
$end

$rem
BASIS = 6-31G*
GUI = 2
METHOD = B3LYP
PRINT_ORBITALS false
MOLDEN_FORMAT false
--------------------------------------------------------------

             Standard Nuclear Orientation (Angstroms)
    I     Atom           X                Y                Z
 ----------------------------------------------------------------
    1      C      -1.0742567417     4.5581742401    -1.0163767146
    2      C      -1.1581716976     3.4837944068    -0.2357753357
    3      C      -0.0766515643     2.5751931628     0.0306371855
    4      S       1.5301382614     2.9273234609    -0.5238713319
    5      C       2.1510316070     1.4768612780     0.2066822497
    6      C       3.5518444043     1.1687933850     0.1053202867
    7      C       4.4394621110     1.8824899510    -0.5828244877
    8      C       1.1526396964     0.7650297181     0.8395051413
    9      C       1.3842655656    -0.5216493892     1.5737332394
   10      C       0.9945417620    -1.7572499559     0.7488828720
   11      C       1.8866853615    -1.9749397966    -0.4741430546
   12      C       3.2343596937    -2.6198788348    -0.1410694355
   13      C       3.1548455817    -4.1259360420     0.1189428268
   14      C       2.9299752809    -4.9391370483    -1.1504495161
   15      C      -0.1176287741     1.3883698360     0.7309282151
   16      C      -1.3962878087     0.8226349553     1.2711693038
   17      C      -2.2750930690     0.2477850671     0.1527746621
   18      C      -3.5474170374    -0.3886838430     0.7046805279
   19      C      -4.4247038893    -0.9642073489    -0.4041241264
   20      C      -5.6995760341    -1.6018026288     0.1426977060
   21      C      -6.5673436897    -2.1775593165    -0.9694635054
   22      H      -1.9149437088     5.2108273272    -1.1722757317
   23      H      -0.1593087579     4.8137820486    -1.5246866923
   24      H      -2.0926794792     3.2516037749     0.2572987842
   25      H       3.8785818357     0.2838868713     0.6330238302
   26      H       4.1521944299     2.7658370221    -1.1287022103
   27      H       5.4776742920     1.6041416413    -0.6219059238
   28      H       0.7946930468    -0.5150633997     2.4941156546
   29      H       2.4312759617    -0.5967256479     1.8666558326
   30      H      -0.0390146645    -1.6449714694     0.4196578130
   31      H       1.0387121713    -2.6352012564     1.3965381033
   32      H       2.0591293118    -1.0112614149    -0.9579770575
   33      H       1.3596292457    -2.6056074510    -1.1917100703
   34      H       3.6555182334    -2.1362245706     0.7426094244
   35      H       3.9262264591    -2.4455276912    -0.9682848914
   36      H       2.3533267372    -4.3366758471     0.8297724709
   37      H       4.0920006612    -4.4493773858     0.5785961083
   38      H       1.9800438601    -4.6880238369    -1.6155484067
   39      H       2.9229812384    -6.0026124428    -0.9218226981
   40      H       3.7238000784    -4.7481448380    -1.8695547365
   41      H      -1.9531699254     1.6036131308     1.7956841354
   42      H      -1.1799709345     0.0337665973     1.9919537614
   43      H      -1.7080306391    -0.5000989566    -0.4064981612
   44      H      -2.5373799857     1.0422174141    -0.5487861605
   45      H      -4.1149053171     0.3608701256     1.2620934017
   46      H      -3.2807786001    -1.1857497776     1.4036333327
   47      H      -3.8571902249    -1.7142597827    -0.9604878132
   48      H      -4.6911837397    -0.1679286145    -1.1033003604
   49      H      -6.2692519750    -0.8514072293     0.6958133271
   50      H      -5.4332069088    -2.3966152083     0.8434303204
   51      H      -6.8580609316    -1.3968495597    -1.6691066579
   52      H      -7.4699697282    -2.6246473597    -0.5594826399
   53      H      -6.0240787730    -2.9432383664    -1.5191730197
 ----------------------------------------------------------------

    9   -1179.5643905335      1.67e-06  Convergence criterion met
 Total energy in the final basis set =    -1179.5643905335

                    Orbital Energies (a.u.)
 --------------------------------------------------------------

 Alpha MOs
 -- Occupied --
-88.8914 -10.2094 -10.2081 -10.1938 -10.1927 -10.1892 -10.1882 -10.1860
-10.1860 -10.1787 -10.1785 -10.1780 -10.1769 -10.1757 -10.1750 -10.1747
-10.1739 -10.1730 -10.1703 -10.1677 -10.1675  -7.9536  -5.9177  -5.9141
 -5.9103  -0.8877  -0.8161  -0.8142  -0.8010  -0.7883  -0.7718  -0.7638
 -0.7368  -0.7232  -0.6892  -0.6863  -0.6474  -0.6378  -0.6231  -0.6013
 -0.5871  -0.5768  -0.5646  -0.5506  -0.5246  -0.5168  -0.4939  -0.4819
 -0.4731  -0.4648  -0.4538  -0.4458  -0.4386  -0.4307  -0.4248  -0.4220
 -0.4211  -0.4068  -0.4062  -0.4014  -0.3911  -0.3898  -0.3853  -0.3727
 -0.3702  -0.3649  -0.3559  -0.3524  -0.3492  -0.3473  -0.3404  -0.3371
 -0.3325  -0.3267  -0.3253  -0.3231  -0.3166  -0.3152  -0.3081  -0.3068
 -0.3021  -0.2632  -0.2338  -0.1913

          Ground-State Mulliken Net Atomic Charges

     Atom                 Charge (a.u.)
  ----------------------------------------
      1 C                    -0.377723
      2 C                    -0.053958
      3 C                    -0.201223
      4 S                     0.231301
      5 C                    -0.217011
      6 C                    -0.050335
      7 C                    -0.381693
      8 C                     0.123280
      9 C                    -0.355435
     10 C                    -0.267887
     11 C                    -0.270654
     12 C                    -0.255144
     13 C                    -0.254289
     14 C                    -0.443799
     15 C                     0.116409
     16 C                    -0.353888
     17 C                    -0.263971
     18 C                    -0.252574
     19 C                    -0.246539
     20 C                    -0.248750
     21 C                    -0.440945
     22 H                     0.143481
     23 H                     0.157707
     24 H                     0.136149
     25 H                     0.140252
     26 H                     0.157856
     27 H                     0.143548
     28 H                     0.147448
     29 H                     0.145985
     30 H                     0.142557
     31 H                     0.134585
     32 H                     0.153212
     33 H                     0.132376
     34 H                     0.125275
     35 H                     0.131553
     36 H                     0.133320
     37 H                     0.130662
     38 H                     0.146720
     39 H                     0.142363
     40 H                     0.143112
     41 H                     0.147023
     42 H                     0.142695
     43 H                     0.145252
     44 H                     0.142836
     45 H                     0.127553
     46 H                     0.128229
     47 H                     0.128231
     48 H                     0.129151
     49 H                     0.130195
     50 H                     0.130003
     51 H                     0.142125
     52 H                     0.141431
     53 H                     0.141944
  ----------------------------------------
  Sum of atomic charges =     0.000000

                    Cartesian Multipole Moments
 -----------------------------------------------------------------
    Charge (ESU x 10^10)
                 0.0000
    Dipole Moment (Debye)
         X      -0.7927      Y      -1.2231      Z       0.6408
       Tot       1.5921
    Quadrupole Moments (Debye-Ang)
        XX    -134.2458     XY      -4.9260     YY    -140.7100
        XZ      -1.1593     YZ      -3.1182     ZZ    -141.1092

 Total job time:  131.44s(wall), 131.10s(cpu)
        *  Thank you very much for using Q-Chem.  Have a nice day.  *
