 Q-Chem 5.2, Q-Chem, Inc., Pleasanton, CA (2019)
 Q-Chem 5.2.1 for Intel X86 EM64T Linux

User input:
--------------------------------------------------------------
$molecule
0 1
C         3.20843604870000   -0.44221868390000   -0.05635355370000
C         2.11913467900000    0.28239121000000    0.16804033670000
C         0.78314264140000   -0.25171113620000    0.04888194270000
N         0.53169945080000   -1.57800256540000   -0.05376731730000
N        -0.72764143780000   -1.77683892420000   -0.08472718450000
N        -1.35631026750000   -0.60992535840000    0.00558131440000
C        -2.78598982610000   -0.53853856500000   -0.01266170710000
C        -0.45293817920000    0.40661952840000    0.08247458400000
C        -0.84023158110000    1.79062830630000    0.17868434540000
C        -0.10712988380000    2.81480285450000   -0.24394468450000
H         4.19702755890000   -0.03177056500000    0.05595270590000
H         3.12723700770000   -1.47154853350000   -0.35966788690000
H         2.18489046520000    1.31747749730000    0.47548509330000
H        -3.15911768410000   -1.55344556750000   -0.13542862130000
H        -3.12955669430000    0.08114038490000   -0.84295566240000
H        -3.16420308270000   -0.12517682540000    0.92487397930000
H        -1.81209003960000    1.97039406560000    0.62314104880000
H         0.84258203930000    2.67571932360000   -0.73015813660000
H        -0.44833698480000    3.82927881010000   -0.13188579370000
$end

$rem
BASIS = 6-31G*
GUI = 2
METHOD = B3LYP
PRINT_ORBITALS false
MOLDEN_FORMAT false
--------------------------------------------------------------

             Standard Nuclear Orientation (Angstroms)
    I     Atom           X                Y                Z
 ----------------------------------------------------------------
    1      C       3.2173738821    -0.4926089133    -0.0456831906
    2      C       2.1283826400     0.2334633598     0.1754654455
    3      C       0.7920318068    -0.2987863385     0.0521144298
    4      N       0.5390852961    -1.6247161735    -0.0515081506
    5      N      -0.7204260918    -1.8218183791    -0.0863745978
    6      N      -1.3477674066    -0.6540558061     0.0021739217
    7      C      -2.7772846777    -0.5807030556    -0.0204594141
    8      C      -0.4432416370     0.3612362695     0.0820008917
    9      C      -0.8289290292     1.7457615069     0.1772263983
   10      C      -0.0931243681     2.7689901904    -0.2429895731
   11      H       4.2061775009    -0.0835352421     0.0697276546
   12      H       3.1356960023    -1.5217818702    -0.3494010811
   13      H       2.1946125392     1.2684133522     0.4832670661
   14      H      -3.1514257533    -1.5950787084    -0.1445272502
   15      H      -3.1174427207     0.0395686636    -0.8517137352
   16      H      -3.1578146309    -0.1669595611     0.9159697791
   17      H      -1.8019034938     1.9267966679     0.6187162785
   18      H       0.8578880898     2.6286737452    -0.7262980526
   19      H      -0.4332818189     3.7839173483    -0.1318287969
 ----------------------------------------------------------------

    9    -436.3388615283      3.55e-06  Convergence criterion met
 Total energy in the final basis set =     -436.3388615283

                    Orbital Energies (a.u.)
 --------------------------------------------------------------

 Alpha MOs
 -- Occupied --
-14.4228 -14.3811 -14.3408 -10.2421 -10.2326 -10.2140 -10.2107 -10.1984
-10.1886 -10.1746  -1.1065  -0.9274  -0.8397  -0.7872  -0.7545  -0.7363
 -0.6530  -0.6184  -0.5778  -0.5657  -0.5201  -0.5013  -0.4722  -0.4672
 -0.4470  -0.4343  -0.4257  -0.4094  -0.3834  -0.3634  -0.3260  -0.3243
 -0.3136  -0.2654  -0.2539  -0.2160

          Ground-State Mulliken Net Atomic Charges

     Atom                 Charge (a.u.)
  ----------------------------------------
      1 C                    -0.342697
      2 C                    -0.103050
      3 C                     0.198638
      4 N                    -0.351523
      5 N                    -0.069739
      6 N                    -0.296597
      7 C                    -0.330303
      8 C                     0.292143
      9 C                    -0.114741
     10 C                    -0.342151
     11 H                     0.139697
     12 H                     0.171683
     13 H                     0.130526
     14 H                     0.205440
     15 H                     0.181775
     16 H                     0.177526
     17 H                     0.139619
     18 H                     0.162081
     19 H                     0.151671
  ----------------------------------------
  Sum of atomic charges =     0.000000

                    Cartesian Multipole Moments
 -----------------------------------------------------------------
    Charge (ESU x 10^10)
                 0.0000
    Dipole Moment (Debye)
         X      -2.5040      Y       3.5265      Z       0.1846
       Tot       4.3290
    Quadrupole Moments (Debye-Ang)
        XX     -47.7701     XY       1.2099     YY     -62.2642
        XZ      -0.9760     YZ       0.1921     ZZ     -60.2774

 Total job time:  18.87s(wall), 18.80s(cpu)
        *  Thank you very much for using Q-Chem.  Have a nice day.  *
