 Q-Chem 5.2, Q-Chem, Inc., Pleasanton, CA (2019)
 Q-Chem 5.2.1 for Intel X86 EM64T Linux

User input:
--------------------------------------------------------------
$molecule
0 1
C        -2.71826780350000    1.83170648470000    0.15699661650000
C        -2.49953134220000    0.54766927560000   -0.09715951540000
C        -1.21334438270000   -0.14121278100000   -0.06053093540000
C        -1.19595809050000   -1.53695977380000   -0.10352772620000
C        -0.00000412370000   -2.22733948840000   -0.05285573090000
C         1.19595356680000   -1.54014898180000    0.03052494500000
C         1.21334297420000   -0.14393482420000    0.05381336360000
C         2.49952814410000    0.54243786970000    0.12309848220000
C         2.71827921740000    1.83704836930000   -0.07009194980000
C         0.00000176930000    0.53683881480000    0.01277416180000
H        -3.70878588260000    2.25105767690000    0.11085619330000
H        -1.93159155210000    2.51462697240000    0.42880195490000
H        -3.34183417300000   -0.08821237020000   -0.34296955130000
H        -2.12903226000000   -2.07893976050000   -0.16647728440000
H        -0.00000694740000   -3.30760267220000   -0.07850452380000
H         2.12902603430000   -2.08450833490000    0.06768437090000
H         3.34180702000000   -0.10434934640000    0.33867700300000
H         1.93162240440000    2.53203582330000   -0.30942933920000
H         3.70878777540000    2.25375872530000   -0.00409212630000
H         0.00000842260000    1.61443834380000    0.03837423230000
$end

$rem
BASIS = 6-31G*
GUI = 2
METHOD = B3LYP
PRINT_ORBITALS false
MOLDEN_FORMAT false
--------------------------------------------------------------

             Standard Nuclear Orientation (Angstroms)
    I     Atom           X                Y                Z
 ----------------------------------------------------------------
    1      C       2.7171788585    -1.8100445530     0.1374073815
    2      C       2.5004060841    -0.5203448422    -0.0881513769
    3      C       1.2137985358     0.1674658482    -0.0465039718
    4      C       1.1964895840     1.5638397498    -0.0565539503
    5      C      -0.0000121118     2.2528154325    -0.0000394140
    6      C      -1.1965077653     1.5638326360     0.0565183817
    7      C      -1.2137999832     0.1674586458     0.0465497059
    8      C      -2.5003960175    -0.5203730868     0.0882431811
    9      C      -2.7171628301    -1.8100416688    -0.1374956467
   10      C       0.0000016092    -0.5121418850     0.0000453420
   11      H       3.7081543577    -2.2281768145     0.0900428606
   12      H       1.9282931049    -2.4992222580     0.3860264028
   13      H       3.3446981112     0.1211914121    -0.3114097639
   14      H       2.1299637362     2.1071665636    -0.0984387831
   15      H      -0.0000169525     3.3333830638    -0.0000726340
   16      H      -2.1299879487     2.1071512525     0.0983727240
   17      H      -3.3446751497     0.1211157251     0.3116852488
   18      H      -1.9282845613    -2.4991543620    -0.3863202069
   19      H      -3.7081229534    -2.2282067868    -0.0900966050
   20      H       0.0000024741    -1.5900454550     0.0000929627
 ----------------------------------------------------------------

    8    -387.0455125269      3.16e-06  Convergence criterion met
 Total energy in the final basis set =     -387.0455125269

                    Orbital Energies (a.u.)
 --------------------------------------------------------------

 Alpha MOs
 -- Occupied --
-10.1941 -10.1941 -10.1894 -10.1894 -10.1868 -10.1860 -10.1858 -10.1846
-10.1792 -10.1792  -0.8662  -0.8031  -0.7795  -0.7283  -0.7244  -0.6348
 -0.6163  -0.5657  -0.5532  -0.5095  -0.4751  -0.4686  -0.4406  -0.4400
 -0.4211  -0.4045  -0.3802  -0.3741  -0.3648  -0.3403  -0.3363  -0.3146
 -0.2847  -0.2306  -0.2199

          Ground-State Mulliken Net Atomic Charges

     Atom                 Charge (a.u.)
  ----------------------------------------
      1 C                    -0.348990
      2 C                    -0.117831
      3 C                     0.179316
      4 C                    -0.195977
      5 C                    -0.125630
      6 C                    -0.195973
      7 C                     0.179310
      8 C                    -0.117835
      9 C                    -0.348985
     10 C                    -0.246766
     11 H                     0.143974
     12 H                     0.143603
     13 H                     0.127480
     14 H                     0.127271
     15 H                     0.129387
     16 H                     0.127271
     17 H                     0.127483
     18 H                     0.143603
     19 H                     0.143974
     20 H                     0.125314
  ----------------------------------------
  Sum of atomic charges =     0.000000

                    Cartesian Multipole Moments
 -----------------------------------------------------------------
    Charge (ESU x 10^10)
                 0.0000
    Dipole Moment (Debye)
         X      -0.0000      Y       0.2060      Z      -0.0000
       Tot       0.2060
    Quadrupole Moments (Debye-Ang)
        XX     -53.1770     XY       0.0001     YY     -52.7936
        XZ      -0.8565     YZ       0.0002     ZZ     -63.7371

 Total job time:  17.57s(wall), 17.49s(cpu)
        *  Thank you very much for using Q-Chem.  Have a nice day.  *
