 Q-Chem 5.2, Q-Chem, Inc., Pleasanton, CA (2019)
 Q-Chem 5.2.1 for Intel X86 EM64T Linux

User input:
--------------------------------------------------------------
$molecule
0 1
C         1.11526790230000   -2.35562433340000   -0.99538487350000
C         0.28338298730000   -2.17223342830000    0.01816995600000
C        -0.70862708960000   -1.09470287310000    0.09607096320000
C        -2.01317006260000   -1.43090917470000    0.45436241930000
C        -3.02946268850000   -0.49520085120000    0.44736119350000
C        -2.76259605740000    0.81291661800000    0.08003937150000
C        -1.46584573560000    1.15107718320000   -0.24770388220000
F        -1.19822623730000    2.43323566590000   -0.57892748700000
C        -0.41312094890000    0.23632586780000   -0.23226909930000
C         0.93125027570000    0.73898271900000   -0.52453640470000
C         2.01638159330000    0.45812678770000    0.17439187930000
F         2.09778026430000   -0.34688885140000    1.22622908300000
F         3.21892248290000    0.96047103490000   -0.08812382220000
H         1.79358256670000   -3.19055957470000   -1.02386771680000
H         1.14375142720000   -1.68578653900000   -1.83916434600000
H         0.25266242180000   -2.88559604940000    0.83113975220000
H        -2.22900488670000   -2.45469530260000    0.72124131640000
H        -4.03269992390000   -0.78181170360000    0.72198523970000
H        -3.53269456100000    1.56692385240000    0.05509357550000
H         1.02897454040000    1.47031611550000   -1.31331422880000
$end

$rem
BASIS = 6-31G*
GUI = 2
METHOD = B3LYP
PRINT_ORBITALS false
MOLDEN_FORMAT false
--------------------------------------------------------------

             Standard Nuclear Orientation (Angstroms)
    I     Atom           X                Y                Z
 ----------------------------------------------------------------
    1      C      -1.3299928923     2.1222073110    -1.1543076476
    2      C      -0.4807657459     2.0814320888    -0.1393649087
    3      C       0.5844686462     1.0850847067     0.0148824291
    4      C       1.8646889728     1.5390526714     0.3282333756
    5      C       2.9437021899     0.6783228176     0.3858908239
    6      C       2.7663380972    -0.6710600006     0.1308958801
    7      C       1.4942263486    -1.1238964976    -0.1519475596
    8      F       1.3145355595    -2.4445261827    -0.3730993225
    9      C       0.3803870243    -0.2858134902    -0.1990273888
   10      C      -0.9275247283    -0.9025232680    -0.4323811433
   11      C      -2.0250315656    -0.6401059480     0.2542822888
   12      F      -2.1555336350     0.2419410490     1.2371351420
   13      F      -3.1912896091    -1.2442524382     0.0488120433
   14      H      -2.0650606701     2.9031159650    -1.2431668032
   15      H      -1.3171775622     1.3842479304    -1.9396161858
   16      H      -0.4945857151     2.8602576601     0.6116275079
   17      H       2.0103242745     2.5939048390     0.5071867663
   18      H       3.9262716658     1.0552564696     0.6236456242
   19      H       3.5869721381    -1.3696203460     0.1587189347
   20      H      -0.9791330519    -1.7018267182    -1.1569635057
 ----------------------------------------------------------------

    9    -684.7381681079      3.52e-06  Convergence criterion met
 Total energy in the final basis set =     -684.7381681079

                    Orbital Energies (a.u.)
 --------------------------------------------------------------

 Alpha MOs
 -- Occupied --
-24.7363 -24.7327 -24.7090 -10.3538 -10.2734 -10.2120 -10.2072 -10.2002
-10.1989 -10.1962 -10.1941 -10.1920 -10.1828  -1.2809  -1.2208  -1.2204
 -0.8796  -0.8124  -0.7943  -0.7441  -0.7347  -0.6528  -0.6275  -0.6112
 -0.5777  -0.5709  -0.5328  -0.5270  -0.5144  -0.4930  -0.4815  -0.4678
 -0.4615  -0.4407  -0.4372  -0.4356  -0.4285  -0.4107  -0.3995  -0.3861
 -0.3686  -0.3655  -0.3454  -0.2922  -0.2875  -0.2393  -0.2241

          Ground-State Mulliken Net Atomic Charges

     Atom                 Charge (a.u.)
  ----------------------------------------
      1 C                    -0.326339
      2 C                    -0.143700
      3 C                     0.106386
      4 C                    -0.182698
      5 C                    -0.125069
      6 C                    -0.195102
      7 C                     0.327242
      8 F                    -0.290216
      9 C                     0.029418
     10 C                    -0.336379
     11 C                     0.584008
     12 F                    -0.233393
     13 F                    -0.245390
     14 H                     0.146412
     15 H                     0.152783
     16 H                     0.141330
     17 H                     0.131859
     18 H                     0.139110
     19 H                     0.145826
     20 H                     0.173913
  ----------------------------------------
  Sum of atomic charges =     0.000000

                    Cartesian Multipole Moments
 -----------------------------------------------------------------
    Charge (ESU x 10^10)
                 0.0000
    Dipole Moment (Debye)
         X       1.0950      Y       1.2036      Z      -0.2567
       Tot       1.6473
    Quadrupole Moments (Debye-Ang)
        XX     -67.9403     XY      -0.1127     YY     -69.9096
        XZ       3.0611     YZ       1.3773     ZZ     -71.9452

 Total job time:  29.40s(wall), 28.97s(cpu)
        *  Thank you very much for using Q-Chem.  Have a nice day.  *
