 Q-Chem 5.2, Q-Chem, Inc., Pleasanton, CA (2019)
 Q-Chem 5.2.1 for Intel X86 EM64T Linux

User input:
--------------------------------------------------------------
$molecule
0 1
C        -3.05475363050000   -3.09566205880000    0.97287991520000
C        -2.74996522360000   -2.50767282870000   -0.40450272680000
N        -1.97859303240000   -1.29778787730000   -0.30640796560000
C        -2.49339552940000   -0.03051230040000   -0.14666951130000
C        -1.43082561880000    0.89479393350000   -0.01777164480000
C        -1.69903830080000    2.24751098080000    0.14252758890000
C        -3.01618968710000    2.65972098580000    0.17486642940000
C        -4.05733416730000    1.74238950330000    0.05109938580000
C        -3.81497255410000    0.39154325920000   -0.10952051100000
C        -0.61159287630000   -1.22263929670000   -0.25339795440000
C        -0.21809345290000    0.12871235060000   -0.08629202660000
C         1.12116079130000    0.47130235370000   -0.01605593490000
C         2.08209624440000   -0.53264430530000   -0.10986369630000
C         3.51017625160000   -0.27421925360000   -0.04629706220000
C         4.13702562760000    0.88376739640000    0.10063317050000
F         3.60731688870000    2.09731762960000    0.22670118690000
F         5.46763526060000    0.99100992230000    0.14429808670000
C         1.67151442130000   -1.86779098470000   -0.27197464470000
C         0.34403219540000   -2.22757756930000   -0.34373868400000
H        -3.63983980040000   -4.00581732880000    0.87191238420000
H        -3.61660119700000   -2.38148732960000    1.57035689990000
H        -2.12990789340000   -3.32879457240000    1.49545900050000
H        -3.68164218750000   -2.28225292930000   -0.93049833180000
H        -2.18874726950000   -3.22901504700000   -1.00469612030000
H        -0.89149582010000    2.95691768630000    0.24024143570000
H        -3.24835525780000    3.70678075540000    0.29945424320000
H        -5.07779152490000    2.09498426910000    0.08349906710000
H        -4.63474410920000   -0.30538472910000   -0.19956495990000
H         1.40115684710000    1.50354231060000    0.11065243760000
H         4.16016640020000   -1.13363543570000   -0.12918120990000
H         2.42697721180000   -2.63691383960000   -0.34005531770000
H         0.06609291390000   -3.26380914850000   -0.46393670900000
$end

$rem
BASIS = 6-31G*
GUI = 2
METHOD = B3LYP
PRINT_ORBITALS false
MOLDEN_FORMAT false
--------------------------------------------------------------

             Standard Nuclear Orientation (Angstroms)
    I     Atom           X                Y                Z
 ----------------------------------------------------------------
    1      C      -3.3356849883    -2.5788386824     1.0287674630
    2      C      -2.9497453882    -2.0747326192    -0.3614619973
    3      N      -2.0195194457    -0.9801878935    -0.2899723169
    4      C      -2.3554886348     0.3495720660    -0.1659218167
    5      C      -1.1760467202     1.1231261408    -0.0546026151
    6      C      -1.2560197211     2.5036109896     0.0692650501
    7      C      -2.5040259759     3.0936417124     0.0832220387
    8      C      -3.6611610926     2.3251741501    -0.0230468930
    9      C      -3.6065353329     0.9500861775    -0.1474356865
   10      C      -0.6553013973    -1.0922623265    -0.2308518030
   11      C      -0.0800567635     0.1961053766    -0.0962422387
   12      C       1.2934246273     0.3531073232    -0.0269442786
   13      C       2.1073529122    -0.7754967135    -0.0892291953
   14      C       3.5572545092    -0.7142149897    -0.0239096675
   15      C       4.3370807584     0.3500886968     0.0968810563
   16      F       3.9790349931     1.6278154319     0.1885668328
   17      F       5.6696901416     0.2745482138     0.1456196106
   18      C       1.5174056813    -2.0453398083    -0.2193630799
   19      C       0.1532226120    -2.2210272328    -0.2896767074
   20      H      -4.0401630879    -3.4022808312     0.9477951303
   21      H      -3.7953368238    -1.7787647961     1.6043532045
   22      H      -2.4529022564    -2.9230484465     1.5626153752
   23      H      -3.8403473582    -1.7373105356    -0.8985671464
   24      H      -2.4916967702    -2.8818883544    -0.9395825559
   25      H      -0.3588046464     3.0976202422     0.1534603314
   26      H      -2.5902538336     4.1655834698     0.1794652826
   27      H      -4.6234939307     2.8154008450    -0.0057459327
   28      H      -4.5141645097     0.3703152194    -0.2243573336
   29      H       1.7124459357     1.3400405600     0.0748204533
   30      H       4.0830479237    -1.6566877753    -0.0808261238
   31      H       2.1600542568    -2.9125143645    -0.2631816735
   32      H      -0.2643255052    -3.2120243535    -0.3848185586
 ----------------------------------------------------------------

    9    -871.9648622379      5.44e-06  Convergence criterion met
 Total energy in the final basis set =     -871.9648622379

                    Orbital Energies (a.u.)
 --------------------------------------------------------------

 Alpha MOs
 -- Occupied --
-24.7354 -24.7241 -14.3766 -10.3449 -10.2364 -10.2199 -10.2189 -10.1948
-10.1944 -10.1883 -10.1872 -10.1869 -10.1858 -10.1837 -10.1837 -10.1837
-10.1831 -10.1818 -10.1764  -1.2748  -1.2142  -0.9968  -0.8607  -0.8506
 -0.8101  -0.7857  -0.7637  -0.7461  -0.7190  -0.7159  -0.6647  -0.6339
 -0.6272  -0.6035  -0.5812  -0.5793  -0.5613  -0.5247  -0.5242  -0.5197
 -0.5090  -0.4833  -0.4666  -0.4623  -0.4527  -0.4426  -0.4376  -0.4319
 -0.4317  -0.4273  -0.4160  -0.4103  -0.4020  -0.3975  -0.3886  -0.3751
 -0.3673  -0.3617  -0.3592  -0.3393  -0.3324  -0.3268  -0.2853  -0.2747
 -0.2373  -0.2109  -0.1895

          Ground-State Mulliken Net Atomic Charges

     Atom                 Charge (a.u.)
  ----------------------------------------
      1 C                    -0.444697
      2 C                    -0.167044
      3 N                    -0.618438
      4 C                     0.321913
      5 C                     0.061426
      6 C                    -0.192500
      7 C                    -0.148140
      8 C                    -0.136666
      9 C                    -0.184448
     10 C                     0.329962
     11 C                     0.064631
     12 C                    -0.269733
     13 C                     0.183220
     14 C                    -0.301411
     15 C                     0.536937
     16 F                    -0.239747
     17 F                    -0.255427
     18 C                    -0.207862
     19 C                    -0.182393
     20 H                     0.150119
     21 H                     0.165266
     22 H                     0.164302
     23 H                     0.161791
     24 H                     0.161047
     25 H                     0.131636
     26 H                     0.121971
     27 H                     0.124208
     28 H                     0.124971
     29 H                     0.140225
     30 H                     0.154307
     31 H                     0.123581
     32 H                     0.126991
  ----------------------------------------
  Sum of atomic charges =     0.000000

                    Cartesian Multipole Moments
 -----------------------------------------------------------------
    Charge (ESU x 10^10)
                 0.0000
    Dipole Moment (Debye)
         X      -2.5922      Y      -2.2235      Z      -0.1062
       Tot       3.4169
    Quadrupole Moments (Debye-Ang)
        XX    -103.4600     XY       1.4998     YY     -97.0440
        XZ       0.2393     YZ       1.3042     ZZ    -111.5943

 Total job time:  75.21s(wall), 74.18s(cpu)
        *  Thank you very much for using Q-Chem.  Have a nice day.  *
