 Q-Chem 5.2, Q-Chem, Inc., Pleasanton, CA (2019)
 Q-Chem 5.2.1 for Intel X86 EM64T Linux

User input:
--------------------------------------------------------------
$molecule
0 1
C        -1.80676232860000   -2.94132099760000   -0.94862408460000
C        -1.15598841040000   -2.39936993850000    0.06869736000000
C        -0.70240657470000   -0.99722447690000    0.08718323010000
C        -1.54808049830000    0.09729648300000    0.03981021990000
O        -2.91178676990000    0.09651290710000    0.09630870810000
C        -3.62467102720000   -0.98032400950000    0.65344291900000
C        -1.01856228820000    1.40175526240000   -0.05625710210000
C         0.32688283240000    1.66584108940000   -0.06765757260000
C         0.88699077570000    3.00546939190000   -0.16450085000000
C         0.21201938320000    4.12635938470000   -0.39222360730000
C         1.22445253740000    0.56001550900000    0.04065200440000
N         2.54521398220000    0.80738017810000    0.06234214770000
C         3.38205863900000   -0.19014899850000    0.12955487860000
C         2.98078646640000   -1.53322205650000    0.16450160510000
C         1.64069619230000   -1.81344009500000    0.14645848110000
C         0.70147573700000   -0.76011578750000    0.10342574680000
H        -2.10457092630000   -3.97656046690000   -0.94892966680000
H        -2.05871207650000   -2.36712717430000   -1.82560908140000
H        -0.88302208560000   -3.00452372840000    0.92634440720000
H        -4.56621807150000   -0.55655644260000    1.00634171480000
H        -3.09009961130000   -1.42728922940000    1.49498053310000
H        -3.83408809980000   -1.75660394020000   -0.08844022370000
H        -1.74095281000000    2.20089313190000   -0.10625580130000
H         1.96096478250000    3.03253518790000   -0.04593510780000
H        -0.85533311470000    4.14887143620000   -0.53407238330000
H         0.71432090270000    5.07670350130000   -0.45091936350000
H         4.43201779350000    0.07418324730000    0.14929611460000
H         3.71756060990000   -2.32107440560000    0.20011416040000
H         1.29712717500000   -2.83749710450000    0.15810093100000
$end

$rem
BASIS = 6-31G*
GUI = 2
METHOD = B3LYP
PRINT_ORBITALS false
MOLDEN_FORMAT false
--------------------------------------------------------------

             Standard Nuclear Orientation (Angstroms)
    I     Atom           X                Y                Z
 ----------------------------------------------------------------
    1      C      -3.0782993489     1.4532759468     1.0094345571
    2      C      -2.2489174697     1.3748670535    -0.0192239424
    3      C      -1.1003823196     0.4525388689    -0.0668457190
    4      C      -1.2058433021    -0.9271785659    -0.0414981348
    5      O      -2.3467245002    -1.6742942646    -0.0971372678
    6      C      -3.5402182552    -1.1564585411    -0.6315519555
    7      C      -0.0461087240    -1.7281177434     0.0273735924
    8      C       1.2235061708    -1.2102901186     0.0325152919
    9      C       2.4281216417    -2.0238361831     0.1014201949
   10      C       2.4819379652    -3.3349091038     0.3064324160
   11      C       1.3654166224     0.2083944505    -0.0535548613
   12      N       2.6048316958     0.7272007820    -0.0811375045
   13      C       2.7559185311     2.0213562372    -0.1283118084
   14      C       1.6828979945     2.9239431481    -0.1353591947
   15      C       0.4092513226     2.4220393357    -0.1107347246
   16      C       0.2029397990     1.0254598214    -0.0888214364
   17      H      -3.8954561340     2.1548388212     1.0312321426
   18      H      -2.9633400020     0.8203386476     1.8745672814
   19      H      -2.3630769928     2.0448879982    -0.8643983140
   20      H      -4.0987202562    -2.0215603304    -0.9925253014
   21      H      -3.3487071914    -0.4752656768    -1.4640361034
   22      H      -4.1325932585    -0.6352702643     0.1262813205
   23      H      -0.2106370754    -2.7933619327     0.0613516612
   24      H       3.3392038337    -1.4548026472    -0.0183321921
   25      H       1.6038787574    -3.9421286523     0.4484382963
   26      H       3.4241066942    -3.8542524336     0.3452465897
   27      H       3.7783341119     2.3772709332    -0.1541301708
   28      H       1.8658128011     3.9874112581    -0.1551952521
   29      H      -0.4401549241     3.0893352855    -0.1010849365
 ----------------------------------------------------------------

    9    -671.2337673458      3.19e-06  Convergence criterion met
 Total energy in the final basis set =     -671.2337673458

                    Orbital Energies (a.u.)
 --------------------------------------------------------------

 Alpha MOs
 -- Occupied --
-19.1782 -14.3208 -10.2526 -10.2351 -10.2165 -10.2154 -10.2012 -10.2002
-10.1989 -10.1974 -10.1938 -10.1926 -10.1877 -10.1854 -10.1761 -10.1725
 -1.0672  -0.9469  -0.8577  -0.8219  -0.7876  -0.7710  -0.7580  -0.7165
 -0.7000  -0.6446  -0.6252  -0.6228  -0.5803  -0.5528  -0.5292  -0.5263
 -0.5097  -0.4794  -0.4723  -0.4631  -0.4595  -0.4497  -0.4294  -0.4285
 -0.4125  -0.4115  -0.4016  -0.3917  -0.3663  -0.3644  -0.3505  -0.3488
 -0.3368  -0.3238  -0.2991  -0.2716  -0.2653  -0.2461  -0.2297  -0.2059

          Ground-State Mulliken Net Atomic Charges

     Atom                 Charge (a.u.)
  ----------------------------------------
      1 C                    -0.317466
      2 C                    -0.172675
      3 C                     0.026472
      4 C                     0.319490
      5 O                    -0.512179
      6 C                    -0.204200
      7 C                    -0.288280
      8 C                     0.171648
      9 C                    -0.100283
     10 C                    -0.348041
     11 C                     0.165898
     12 N                    -0.506499
     13 C                     0.041039
     14 C                    -0.152269
     15 C                    -0.154489
     16 C                     0.126719
     17 H                     0.144524
     18 H                     0.155585
     19 H                     0.144315
     20 H                     0.157993
     21 H                     0.149507
     22 H                     0.157275
     23 H                     0.139924
     24 H                     0.164478
     25 H                     0.139772
     26 H                     0.143490
     27 H                     0.135112
     28 H                     0.133901
     29 H                     0.139238
  ----------------------------------------
  Sum of atomic charges =     0.000000

                    Cartesian Multipole Moments
 -----------------------------------------------------------------
    Charge (ESU x 10^10)
                 0.0000
    Dipole Moment (Debye)
         X      -2.6140      Y       1.6890      Z      -0.5260
       Tot       3.1564
    Quadrupole Moments (Debye-Ang)
        XX     -85.4427     XY       0.1597     YY     -84.4261
        XZ       1.3452     YZ      -0.6948     ZZ     -94.3792

 Total job time:  55.47s(wall), 55.30s(cpu)
        *  Thank you very much for using Q-Chem.  Have a nice day.  *
