 Q-Chem 5.4, Q-Chem, Inc., Pleasanton, CA (2021)
 Q-Chem 5.4.2 for Intel X86 EM64T Linux

User input:
--------------------------------------------------------------
$molecule
0 1
C           -4.76918214030000        0.07403351360000        0.16725184010000
C           -3.74397310560000       -0.75044285170000       -0.01484189390000
C           -2.33261241870000       -0.39410952580000       -0.05910028810000
C           -1.38183316380000       -1.40513460060000       -0.20706863100000
C           -0.03686083990000       -1.11092420360000       -0.25013171770000
C            0.41639581320000        0.20543657420000       -0.14915211530000
C            1.83515433980000        0.52721999320000       -0.21083911800000
C            2.85552326910000       -0.28086311970000        0.03324796860000
F            2.82356411710000       -1.55308586850000        0.41401945850000
F            4.12863062220000        0.10765504100000       -0.05845127930000
C           -0.52812656530000        1.23717012940000       -0.00652781420000
C           -0.10509575620000        2.67128552590000        0.11520951110000
C           -1.87354238220000        0.91960449970000        0.03734068970000
H           -5.78196807470000       -0.29017442990000        0.18607598820000
H           -4.64988078020000        1.13474350950000        0.30654101530000
H           -3.94110595570000       -1.80808908500000       -0.14276606840000
H           -1.70503906530000       -2.43272300250000       -0.29008726100000
H            0.67165898670000       -1.91326438040000       -0.37847869910000
H            2.10997246070000        1.53633438710000       -0.47671511200000
H            0.38317278700000        3.00962463800000       -0.79867298560000
H            0.59080303060000        2.80215869330000        0.94236015090000
H           -0.96910187140000        3.30705095770000        0.29055195900000
H           -2.58750294080000        1.72144436140000        0.14897060790000
$end

$rem
BASIS = 6-31G*
GUI = 2
METHOD = B3LYP
PRINT_ORBITALS false
MOLDEN_FORMAT false
$end
--------------------------------------------------------------

             Standard Nuclear Orientation (Angstroms)
    I     Atom           X                Y                Z
 ----------------------------------------------------------------
    1      C       4.6481975342     0.0810337175     0.1761123393
    2      C       3.6035832519     0.8825746613     0.0020833576
    3      C       2.2012813619     0.4928330117    -0.0481370457
    4      C       1.2265366315     1.4822602674    -0.1858103543
    5      C      -0.1108968314     1.1562070092    -0.2340363266
    6      C      -0.5323592348    -0.1717744891    -0.1487207145
    7      C      -1.9428721049    -0.5269572260    -0.2159834726
    8      C      -2.9827053279     0.2534281523     0.0359591889
    9      F      -2.9818646119     1.5216036094     0.4312936559
   10      F      -4.2459670187    -0.1646083466    -0.0618816616
   11      C       0.4366359125    -1.1819925047    -0.0166362378
   12      C       0.0482103732    -2.6271954884     0.0881299244
   13      C       1.7739482214    -0.8325908780     0.0326627140
   14      H       5.6518779945     0.4693248889     0.2004561955
   15      H       4.5543822797    -0.9837721202     0.3031052930
   16      H       3.7752691363     1.9460648961    -0.1134760966
   17      H       1.5249364370     2.5182296244    -0.2566419772
   18      H      -0.8384372510     1.9426423085    -0.3541508953
   19      H      -2.1929730343    -1.5392929798    -0.4937473119
   20      H      -0.4307781395    -2.9667162387    -0.8302144596
   21      H      -0.6452065296    -2.7842882363     0.9127971032
   22      H       0.9271215663    -3.2439037117     0.2573496265
   23      H       2.5069334902    -1.6182031957     0.1360743369
 ----------------------------------------------------------------

    9    -624.8318376226      7.18e-06  Convergence criterion met
 Total energy in the final basis set =     -624.8318376226

                    Orbital Energies (a.u.)
 --------------------------------------------------------------

 Alpha MOs
 -- Occupied --
-24.7430 -24.7332 -10.3563 -10.2019 -10.2014 -10.1973 -10.1926 -10.1892
-10.1854 -10.1853 -10.1843 -10.1837 -10.1789  -1.2838  -1.2230  -0.8719
 -0.8173  -0.7833  -0.7688  -0.7219  -0.6918  -0.6491  -0.6183  -0.5939
 -0.5693  -0.5591  -0.5287  -0.5179  -0.4884  -0.4831  -0.4493  -0.4440
 -0.4387  -0.4353  -0.4282  -0.4176  -0.4109  -0.4075  -0.3880  -0.3714
 -0.3699  -0.3427  -0.3353  -0.3162  -0.2661  -0.2471  -0.2081

          Ground-State Mulliken Net Atomic Charges

     Atom                 Charge (a.u.)
  ----------------------------------------
      1 C                    -0.352560
      2 C                    -0.117410
      3 C                     0.197483
      4 C                    -0.206924
      5 C                    -0.191952
      6 C                     0.134593
      7 C                    -0.310307
      8 C                     0.550954
      9 F                    -0.234746
     10 F                    -0.250080
     11 C                     0.132548
     12 C                    -0.538277
     13 C                    -0.262352
     14 H                     0.143816
     15 H                     0.141980
     16 H                     0.126733
     17 H                     0.127442
     18 H                     0.135944
     19 H                     0.161560
     20 H                     0.163869
     21 H                     0.167299
     22 H                     0.160403
     23 H                     0.119985
  ----------------------------------------
  Sum of atomic charges =     0.000000

                    Cartesian Multipole Moments
 -----------------------------------------------------------------
    Charge (ESU x 10^10)
                 0.0000
    Dipole Moment (Debye)
         X       0.6933      Y      -0.8519      Z      -0.1798
       Tot       1.1129
    Quadrupole Moments (Debye-Ang)
        XX     -74.5603     XY       1.3105     YY     -67.6170
        XZ       0.9007     YZ      -0.7772     ZZ     -76.8968

 Total job time:  49.32s(wall), 45.90s(cpu)
        *  Thank you very much for using Q-Chem.  Have a nice day.  *
