 Q-Chem 5.2, Q-Chem, Inc., Pleasanton, CA (2019)
 Q-Chem 5.2.1 for Intel X86 EM64T Linux

User input:
--------------------------------------------------------------
$molecule
0 1
C        -3.65258089060000   -0.22005051800000    0.00101664350000
C        -2.54010255830000    0.50940562340000   -0.00039720090000
C        -1.20446154710000   -0.02535086430000   -0.00052929950000
C        -0.77034844440000   -1.33127840950000   -0.00074201570000
N         0.55600218910000   -1.51151228150000   -0.00038769150000
C         1.21523248260000   -0.39677551070000    0.00003092330000
C         2.64758363280000   -0.31124410470000    0.00051790070000
C         3.33779936660000    0.82539888660000    0.00029349450000
S         0.17795393280000    1.02610404180000    0.00003382140000
H        -4.62288828330000    0.24410195320000    0.00116259090000
H        -3.63296894090000   -1.29588125640000    0.00185059710000
H        -2.60235308340000    1.58961348240000   -0.00120312550000
H        -1.40840315020000   -2.19601874690000   -0.00119890440000
H         3.14296908820000   -1.27227877250000    0.00108340340000
H         2.84542627120000    1.78442919540000   -0.00018964010000
H         4.41316423490000    0.83210528470000    0.00053745930000
$end

$rem
BASIS = 6-31G*
GUI = 2
METHOD = B3LYP
PRINT_ORBITALS false
MOLDEN_FORMAT false
--------------------------------------------------------------

             Standard Nuclear Orientation (Angstroms)
    I     Atom           X                Y                Z
 ----------------------------------------------------------------
    1      C       3.6462001150     0.0055076137    -0.0010269656
    2      C       2.4911729549     0.6655275899     0.0004533960
    3      C       1.1907546840     0.0500491235     0.0005396840
    4      C       0.8373608264    -1.2799936414     0.0006366454
    5      N      -0.4754766702    -1.5410452625     0.0002680838
    6      C      -1.2016792320    -0.4687334790    -0.0000503096
    7      C      -2.6365800281    -0.4710036301    -0.0005277007
    8      C      -3.3950503459     0.6212773637    -0.0002010789
    9      S      -0.2534060149     1.0149480575     0.0000721391
   10      H       4.5862893381     0.5281606684    -0.0011328914
   11      H       3.6924518149    -1.0695072780    -0.0019567426
   12      H       2.4872121160     1.7475203321     0.0013554755
   13      H       1.5271309330    -2.1040730817     0.0010156150
   14      H      -3.0722344163    -1.4605487442    -0.0011781462
   15      H      -2.9622800333     1.6086375643     0.0003668241
   16      H      -4.4688106679     0.5621728140    -0.0004429702
 ----------------------------------------------------------------

    9    -723.8482783988      8.74e-06  Convergence criterion met
 Total energy in the final basis set =     -723.8482783988

                    Orbital Energies (a.u.)
 --------------------------------------------------------------

 Alpha MOs
 -- Occupied --
-88.9118 -14.3329 -10.2517 -10.2273 -10.2169 -10.2070 -10.2031 -10.1937
-10.1911  -7.9741  -5.9377  -5.9345  -5.9313  -0.9742  -0.8285  -0.8074
 -0.7677  -0.7210  -0.6391  -0.6141  -0.5603  -0.5388  -0.4959  -0.4691
 -0.4663  -0.4269  -0.4236  -0.4144  -0.3831  -0.3738  -0.3550  -0.3355
 -0.2928  -0.2730  -0.2714  -0.2121

          Ground-State Mulliken Net Atomic Charges

     Atom                 Charge (a.u.)
  ----------------------------------------
      1 C                    -0.335761
      2 C                    -0.091331
      3 C                    -0.137656
      4 C                     0.033886
      5 N                    -0.421918
      6 C                     0.083296
      7 C                    -0.066430
      8 C                    -0.357640
      9 S                     0.223431
     10 H                     0.151771
     11 H                     0.148828
     12 H                     0.143081
     13 H                     0.149766
     14 H                     0.161497
     15 H                     0.159074
     16 H                     0.156106
  ----------------------------------------
  Sum of atomic charges =     0.000000

                    Cartesian Multipole Moments
 -----------------------------------------------------------------
    Charge (ESU x 10^10)
                -0.0000
    Dipole Moment (Debye)
         X       0.4992      Y       1.0515      Z      -0.0002
       Tot       1.1640
    Quadrupole Moments (Debye-Ang)
        XX     -48.9096     XY      -1.6292     YY     -58.9215
        XZ       0.0010     YZ       0.0037     ZZ     -63.1016

 Total job time:  14.60s(wall), 14.53s(cpu)
        *  Thank you very much for using Q-Chem.  Have a nice day.  *
