 Q-Chem 5.2, Q-Chem, Inc., Pleasanton, CA (2019)
 Q-Chem 5.2.1 for Intel X86 EM64T Linux

User input:
--------------------------------------------------------------
$molecule
0 1
C         1.39489438380000    1.79791230010000   -1.81108446230000
C         2.21672854040000    1.07921217390000   -1.05687812500000
C         1.85352263390000   -0.09946742330000   -0.28928322360000
C         2.79556367840000   -1.12217414750000    0.01295875010000
C         2.25725687470000   -2.16677436360000    0.68305610110000
S         0.58030842580000   -1.94529530270000    0.99680515470000
C         0.59710817770000   -0.40472102400000    0.18225732130000
C        -0.59705116520000    0.40490518600000    0.18234757240000
S        -0.58065276700000    1.94575354200000    0.99647126700000
C        -2.25782016880000    2.16634146810000    0.68317968360000
C        -2.79593487490000    1.12128617910000    0.01361347630000
C        -1.85350457260000    0.09896000780000   -0.28854885930000
C        -2.21593433700000   -1.08057483370000   -1.05531784900000
C        -1.39410265530000   -1.79611833410000   -1.81244820110000
H         1.74476613240000    2.65247925950000   -2.36392481500000
H         0.35107634580000    1.55442286330000   -1.91502486930000
H         3.26843184790000    1.33406429540000   -1.01407745830000
H         3.82886242790000   -1.07001291450000   -0.28163313480000
H         2.73885915090000   -3.06313243970000    1.02007382120000
H        -2.73964452960000    3.06268880300000    1.01991014730000
H        -3.82926904490000    1.06859678580000   -0.28073585300000
H        -3.26664658970000   -1.33883363820000   -1.00903111300000
H        -0.35146358030000   -1.54883712460000   -1.91940912110000
H        -1.74267688650000   -2.65155899420000   -2.36474038910000
$end

$rem
BASIS = 6-31G*
GUI = 2
METHOD = B3LYP
PRINT_ORBITALS false
MOLDEN_FORMAT false
--------------------------------------------------------------

             Standard Nuclear Orientation (Angstroms)
    I     Atom           X                Y                Z
 ----------------------------------------------------------------
    1      C      -0.1867530183    -2.2685960971    -1.7702384245
    2      C      -1.2675825075    -2.1151588034    -1.0158956220
    3      C      -1.6069862375    -0.9291505145    -0.2486958418
    4      C      -2.9546359740    -0.5868891322     0.0536581193
    5      C      -3.0741492309     0.5824074291     0.7233270072
    6      S      -1.5484099173     1.3129400478     1.0365189348
    7      C      -0.7211800983     0.0129733278     0.2223218663
    8      C       0.7213307908    -0.0129776532     0.2221612338
    9      S       1.5493410470    -1.3123277603     1.0366354621
   10      C       3.0746636393    -0.5811704716     0.7227865309
   11      C       2.9544986385     0.5878866413     0.0527919493
   12      C       1.6066213867     0.9293839662    -0.2492581183
   13      C       1.2658229007     2.1150940611    -1.0164220009
   14      C       0.1864462881     2.2653067173    -1.7734150459
   15      H      -0.0131687459    -3.1757425503    -2.3227610005
   16      H       0.5546006583    -1.4945496356    -1.8746108927
   17      H      -2.0093462057    -2.9030537383    -0.9726574943
   18      H      -3.7917521045    -1.1950755031    -0.2405482722
   19      H      -3.9670909506     1.0703330140     1.0603184098
   20      H       3.9679073690    -1.0687063893     1.0595431684
   21      H       3.7912494541     1.1963080560    -0.2419429510
   22      H       2.0049118396     2.9053356268    -0.9705731375
   23      H      -0.5518869229     1.4886467907    -1.8799434639
   24      H       0.0110980690     3.1720509043    -2.3260246367
 ----------------------------------------------------------------

    9   -1259.6020468618      5.97e-06  Convergence criterion met
 Total energy in the final basis set =    -1259.6020468618

                    Orbital Energies (a.u.)
 --------------------------------------------------------------

 Alpha MOs
 -- Occupied --
-88.9045 -88.9044 -10.2188 -10.2184 -10.2107 -10.2107 -10.1960 -10.1960
-10.1897 -10.1897 -10.1883 -10.1882 -10.1764 -10.1764  -7.9657  -7.9657
 -5.9298  -5.9297  -5.9260  -5.9260  -5.9228  -5.9227  -0.8986  -0.8756
 -0.7923  -0.7891  -0.7614  -0.7219  -0.7170  -0.6938  -0.6147  -0.5937
 -0.5730  -0.5713  -0.5495  -0.4974  -0.4962  -0.4721  -0.4559  -0.4530
 -0.4154  -0.4150  -0.4015  -0.3975  -0.3823  -0.3773  -0.3743  -0.3616
 -0.3587  -0.3376  -0.3359  -0.3033  -0.2875  -0.2511  -0.2427  -0.2213
 -0.2020

          Ground-State Mulliken Net Atomic Charges

     Atom                 Charge (a.u.)
  ----------------------------------------
      1 C                    -0.341651
      2 C                    -0.117569
      3 C                     0.175701
      4 C                    -0.134502
      5 C                    -0.344100
      6 S                     0.275294
      7 C                    -0.261726
      8 C                    -0.261684
      9 S                     0.275244
     10 C                    -0.344085
     11 C                    -0.134393
     12 C                     0.175452
     13 C                    -0.117736
     14 C                    -0.341355
     15 H                     0.141504
     16 H                     0.166807
     17 H                     0.129714
     18 H                     0.139741
     19 H                     0.170746
     20 H                     0.170763
     21 H                     0.139758
     22 H                     0.129803
     23 H                     0.166750
     24 H                     0.141525
  ----------------------------------------
  Sum of atomic charges =     0.000000

                    Cartesian Multipole Moments
 -----------------------------------------------------------------
    Charge (ESU x 10^10)
                 0.0000
    Dipole Moment (Debye)
         X       0.0007      Y       0.0023      Z      -0.4924
       Tot       0.4924
    Quadrupole Moments (Debye-Ang)
        XX     -81.4916     XY       1.0890     YY     -91.0090
        XZ       0.0035     YZ       0.0030     ZZ     -97.5520

 Total job time:  46.16s(wall), 45.69s(cpu)
        *  Thank you very much for using Q-Chem.  Have a nice day.  *
