 Q-Chem 5.2, Q-Chem, Inc., Pleasanton, CA (2019)
 Q-Chem 5.2.1 for Intel X86 EM64T Linux

User input:
--------------------------------------------------------------
$molecule
0 1
C        -1.90360111840000   -3.43131760860000    0.60693178800000
C        -2.42802141150000   -2.35960812780000    0.01701123070000
C        -1.87243643960000   -1.03379414970000    0.05979826480000
C        -0.75010740910000   -0.56624182970000    0.69388948200000
C        -0.49676806340000    0.80614162380000    0.50642101210000
C         0.69966953060000    1.46423269160000    1.11823357670000
C         1.88829763980000    1.50948497450000    0.14569260810000
C         2.39144964200000    0.12936977580000   -0.27997905790000
C         3.09724476230000   -0.63064058950000    0.84135985690000
C         3.49630150540000   -2.05156139100000    0.44080753660000
C         4.59026344290000   -2.09435550610000   -0.61954304280000
C        -1.44881683570000    1.41270799600000   -0.28865814020000
C        -1.65035741360000    2.76562881040000   -0.73820902390000
C        -0.82157863280000    3.80473352330000   -0.66077333650000
S        -2.65799436000000    0.25849991850000   -0.78867696030000
H        -2.37391028000000   -4.39579941910000    0.53359225650000
H        -0.99379220510000   -3.38337627850000    1.17979246220000
H        -3.34428389550000   -2.45290989740000   -0.55171260850000
H        -0.11647729990000   -1.19489792130000    1.29400830280000
H         0.98487388220000    0.90880931890000    2.01318694110000
H         0.44627156920000    2.47944054820000    1.42806486280000
H         2.70591893240000    2.06153544910000    0.61588386770000
H         1.58522971110000    2.05452791260000   -0.75097719070000
H         3.08686895200000    0.26479229990000   -1.11022634270000
H         1.55016420860000   -0.46272586430000   -0.64704003050000
H         2.43703992300000   -0.69429720990000    1.70860647860000
H         3.98883320910000   -0.07788864220000    1.14786758090000
H         2.61448653950000   -2.58152404890000    0.07220125270000
H         3.85014007880000   -2.57796340670000    1.33106403160000
H         4.24297019610000   -1.66854998600000   -1.55713696280000
H         4.89327841490000   -3.12208005430000   -0.80717464560000
H         5.46288652760000   -1.53518875710000   -0.28827917130000
H        -2.61563903870000    2.91658524460000   -1.20825803510000
H         0.16495555430000    3.75172903910000   -0.24070973630000
H        -1.12252669480000    4.76698746220000   -1.03851729790000
$end

$rem
BASIS = 6-31G*
GUI = 2
METHOD = B3LYP
PRINT_ORBITALS false
MOLDEN_FORMAT false
--------------------------------------------------------------

             Standard Nuclear Orientation (Angstroms)
    I     Atom           X                Y                Z
 ----------------------------------------------------------------
    1      C      -0.6405067863    -3.9372097729     0.3807465087
    2      C      -1.5558906514    -3.0833411590    -0.0715419930
    3      C      -1.4959091279    -1.6530165833     0.0657967157
    4      C      -0.5553431207    -0.8626320957     0.6748346818
    5      C      -0.8140795288     0.5197671148     0.6056285499
    6      C       0.1272256797     1.5156415195     1.2064946403
    7      C       1.1339931459     2.0470558569     0.1746329453
    8      C       2.0467311731     0.9684075686    -0.4106049808
    9      C       3.0699396609     0.4327346839     0.5890261612
   10      C       3.9020125964    -0.7226448305     0.0309426754
   11      C       4.8433387796    -0.3008411208    -1.0910707183
   12      C      -1.9845432650     0.8023890379    -0.0701006696
   13      C      -2.6842212146     2.0233255689    -0.3748531685
   14      C      -2.2663063641     3.2809170828    -0.2467129346
   15      S      -2.7548373866    -0.6682854948    -0.6068396909
   16      H      -0.7496073435    -4.9982738963     0.2427807464
   17      H       0.2426094924    -3.6092320193     0.9010889088
   18      H      -2.4288469266    -3.4561863766    -0.5917561319
   19      H       0.3083874228    -1.2653755095     1.1734382183
   20      H       0.6665521912     1.0370916153     2.0255764878
   21      H      -0.4355709936     2.3507485067     1.6268625378
   22      H       1.7462224002     2.8194093788     0.6468505886
   23      H       0.5814654516     2.5097060328    -0.6461024954
   24      H       2.5745364408     1.3989752380    -1.2634185080
   25      H       1.4355544526     0.1431806359    -0.7828088375
   26      H       2.5532621797     0.0790139060     1.4834339484
   27      H       3.7363817847     1.2433274206     0.8943226884
   28      H       3.2312221905    -1.5042229511    -0.3344400256
   29      H       4.4948421934    -1.1494507605     0.8441137595
   30      H       4.2874763025     0.0377768476    -1.9613350902
   31      H       5.4676608365    -1.1384651296    -1.3941374236
   32      H       5.4920508140     0.5072868269    -0.7594441659
   33      H      -3.6792919346     1.8539771162    -0.7706534936
   34      H      -1.2899994442     3.5525917330     0.1075896034
   35      H      -2.9161551850     4.0973720762    -0.5118367418
 ----------------------------------------------------------------

    8    -943.6806366845      9.03e-06  Convergence criterion met
 Total energy in the final basis set =     -943.6806366845

                    Orbital Energies (a.u.)
 --------------------------------------------------------------

 Alpha MOs
 -- Occupied --
-88.9018 -10.2165 -10.2147 -10.1984 -10.1977 -10.1932 -10.1850 -10.1848
-10.1824 -10.1795 -10.1786 -10.1748 -10.1734 -10.1710 -10.1670  -7.9637
 -5.9276  -5.9242  -5.9208  -0.8898  -0.8156  -0.8032  -0.7810  -0.7687
 -0.7376  -0.7080  -0.6905  -0.6518  -0.6135  -0.6030  -0.5892  -0.5628
 -0.5360  -0.5092  -0.4861  -0.4724  -0.4676  -0.4516  -0.4473  -0.4391
 -0.4249  -0.4179  -0.4091  -0.3956  -0.3904  -0.3803  -0.3664  -0.3618
 -0.3575  -0.3516  -0.3440  -0.3383  -0.3291  -0.3225  -0.3176  -0.3122
 -0.3043  -0.2695  -0.2453  -0.1967

          Ground-State Mulliken Net Atomic Charges

     Atom                 Charge (a.u.)
  ----------------------------------------
      1 C                    -0.342287
      2 C                    -0.088336
      3 C                    -0.128932
      4 C                    -0.165517
      5 C                     0.180680
      6 C                    -0.361126
      7 C                    -0.259144
      8 C                    -0.265775
      9 C                    -0.253775
     10 C                    -0.251976
     11 C                    -0.444160
     12 C                    -0.195960
     13 C                    -0.089763
     14 C                    -0.356059
     15 S                     0.225840
     16 H                     0.146810
     17 H                     0.142565
     18 H                     0.136947
     19 H                     0.138487
     20 H                     0.147047
     21 H                     0.150400
     22 H                     0.129436
     23 H                     0.144929
     24 H                     0.134938
     25 H                     0.146691
     26 H                     0.125828
     27 H                     0.127284
     28 H                     0.132127
     29 H                     0.128291
     30 H                     0.149580
     31 H                     0.142600
     32 H                     0.140811
     33 H                     0.135504
     34 H                     0.152209
     35 H                     0.143805
  ----------------------------------------
  Sum of atomic charges =     0.000000

                    Cartesian Multipole Moments
 -----------------------------------------------------------------
    Charge (ESU x 10^10)
                -0.0000
    Dipole Moment (Debye)
         X       0.7701      Y       0.1225      Z       0.3239
       Tot       0.8443
    Quadrupole Moments (Debye-Ang)
        XX     -99.1509     XY      -0.5266     YY     -93.5141
        XZ       3.3554     YZ       0.1195     ZZ    -102.2375

 Total job time:  53.98s(wall), 53.17s(cpu)
        *  Thank you very much for using Q-Chem.  Have a nice day.  *
