 Q-Chem 5.2, Q-Chem, Inc., Pleasanton, CA (2019)
 Q-Chem 5.2.1 for Intel X86 EM64T Linux

User input:
--------------------------------------------------------------
$molecule
0 1
C        -4.26775691110000   -1.39571553880000   -0.17215364000000
C        -3.05527502970000   -1.75873466380000    0.23753738810000
C        -1.90449836690000   -0.90014417670000    0.27310450540000
C        -0.63959956450000   -1.23001726510000    0.68757967580000
C         0.28643982740000   -0.17331995060000    0.61675930530000
C         1.72860466340000   -0.33334591170000    0.98440334980000
C         2.58476476930000   -0.61555875020000   -0.25599576050000
C         4.06044600070000   -0.77890753550000    0.09730472260000
C         4.90920589150000   -1.05464641790000   -1.13760876900000
C        -0.27785335430000    0.98703842300000    0.12989012820000
C         0.36113673470000    2.25567078810000   -0.08286986840000
C        -0.22900891440000    3.33034443610000   -0.60024997780000
S        -1.96729602620000    0.76147418590000   -0.22869448010000
H        -5.09416525130000   -2.08394259480000   -0.17574364650000
H        -4.46562527530000   -0.39415840410000   -0.51671394690000
H        -2.87291745170000   -2.76957632180000    0.58098833260000
H        -0.38252747860000   -2.21393566990000    1.04108198420000
H         1.82745137760000   -1.16521766830000    1.68504449980000
H         2.09601712550000    0.56750685550000    1.48067591690000
H         2.46803691390000    0.20499593220000   -0.96785402460000
H         2.22251562180000   -1.52538355640000   -0.74051825140000
H         4.17351780830000   -1.60190160490000    0.80709648690000
H         4.41732124620000    0.13057464190000    0.58688953150000
H         4.58369701400000   -1.96970336760000   -1.62771608170000
H         5.95646503930000   -1.16456190930000   -0.86571089820000
H         4.82315055500000   -0.23683807000000   -1.84992876920000
H         1.40207250860000    2.30144874460000    0.20932615550000
H        -1.26218727180000    3.31185222080000   -0.90551497990000
H         0.30076714370000    4.25673943140000   -0.73467782650000
$end

$rem
BASIS = 6-31G*
GUI = 2
METHOD = B3LYP
PRINT_ORBITALS false
MOLDEN_FORMAT false
--------------------------------------------------------------

             Standard Nuclear Orientation (Angstroms)
    I     Atom           X                Y                Z
 ----------------------------------------------------------------
    1      C       4.3252683190     1.4036795507    -0.5355403409
    2      C       3.1260592232     1.7973659610    -0.1152422428
    3      C       1.9947948847     0.9339953672     0.0785663905
    4      C       0.7440880358     1.2946575864     0.5101101814
    5      C      -0.1637830217     0.2247782658     0.6116093282
    6      C      -1.5904223497     0.4087861322     1.0256759881
    7      C      -2.5076883612     0.5266929310    -0.1974205808
    8      C      -3.9685227565     0.7118044323     0.2036227525
    9      C      -4.8780225278     0.8240518497    -1.0136066008
   10      C       0.3997980986    -0.9783945265     0.2419452937
   11      C      -0.2238056028    -2.2719835896     0.2145776612
   12      C       0.3625568217    -3.3934700245    -0.1969132839
   13      S       2.0664293980    -0.7752635789    -0.2214731110
   14      H       5.1372942983     2.0974683435    -0.6615999828
   15      H       4.5263403295     0.3704542753    -0.7657705856
   16      H       2.9402500665     2.8398808288     0.1120272067
   17      H       0.4846326046     2.3106631069     0.7541614634
   18      H      -1.6730496169     1.3181768360     1.6247257323
   19      H      -1.9173995436    -0.4300079288     1.6439999520
   20      H      -2.4079322082    -0.3725863591    -0.8098118247
   21      H      -2.1855026608     1.3757490486    -0.8049300463
   22      H      -4.0647686923     1.6133032218     0.8134960779
   23      H      -4.2851161473    -0.1362243160     0.8158538560
   24      H      -4.5928877190     1.6771267685    -1.6255312303
   25      H      -5.9136615075     0.9520275788    -0.7072804565
   26      H      -4.8089749305    -0.0729717688    -1.6253229196
   27      H      -1.2492140699    -2.2959843038     0.5595165898
   28      H       1.3801428897    -3.3982424123    -0.5511476981
   29      H      -0.1549480395    -4.3363992704    -0.1931236384
 ----------------------------------------------------------------

    9    -865.0627253766      1.78e-06  Convergence criterion met
 Total energy in the final basis set =     -865.0627253766

                    Orbital Energies (a.u.)
 --------------------------------------------------------------

 Alpha MOs
 -- Occupied --
-88.8962 -10.2151 -10.2113 -10.1963 -10.1952 -10.1915 -10.1876 -10.1853
-10.1802 -10.1797 -10.1789 -10.1786 -10.1702  -7.9583  -5.9224  -5.9187
 -5.9150  -0.8882  -0.8131  -0.7994  -0.7741  -0.7522  -0.7141  -0.6939
 -0.6343  -0.6244  -0.5821  -0.5695  -0.5473  -0.5134  -0.4938  -0.4773
 -0.4558  -0.4435  -0.4316  -0.4259  -0.4174  -0.3959  -0.3931  -0.3865
 -0.3760  -0.3700  -0.3547  -0.3489  -0.3372  -0.3357  -0.3299  -0.3199
 -0.3140  -0.2670  -0.2427  -0.1947

          Ground-State Mulliken Net Atomic Charges

     Atom                 Charge (a.u.)
  ----------------------------------------
      1 C                    -0.374549
      2 C                    -0.055151
      3 C                    -0.135784
      4 C                    -0.179733
      5 C                     0.155710
      6 C                    -0.348644
      7 C                    -0.246674
      8 C                    -0.248006
      9 C                    -0.441150
     10 C                    -0.200995
     11 C                    -0.054522
     12 C                    -0.377040
     13 S                     0.239396
     14 H                     0.145981
     15 H                     0.156770
     16 H                     0.136884
     17 H                     0.131020
     18 H                     0.142342
     19 H                     0.145551
     20 H                     0.141213
     21 H                     0.137438
     22 H                     0.131420
     23 H                     0.130514
     24 H                     0.143756
     25 H                     0.142825
     26 H                     0.144093
     27 H                     0.136113
     28 H                     0.156903
     29 H                     0.144317
  ----------------------------------------
  Sum of atomic charges =     0.000000

                    Cartesian Multipole Moments
 -----------------------------------------------------------------
    Charge (ESU x 10^10)
                 0.0000
    Dipole Moment (Debye)
         X      -1.0785      Y       0.7388      Z       0.2978
       Tot       1.3408
    Quadrupole Moments (Debye-Ang)
        XX     -83.0558     XY       2.3513     YY     -80.2657
        XZ      -2.6327     YZ       1.3717     ZZ     -90.1578

 Total job time:  39.68s(wall), 39.46s(cpu)
        *  Thank you very much for using Q-Chem.  Have a nice day.  *
