 Q-Chem 5.2, Q-Chem, Inc., Pleasanton, CA (2019)
 Q-Chem 5.2.1 for Intel X86 EM64T Linux

User input:
--------------------------------------------------------------
$molecule
0 1
F         6.79963581060000   -3.24093099220000    0.35709454120000
C         5.59535122220000   -2.71005036030000    0.13681613600000
F         4.86311586570000   -3.58107478720000   -0.55090607060000
C         5.24793020590000   -1.50365061240000    0.56258621320000
C         3.98375028790000   -0.81277501850000    0.39422424400000
C         2.89061669100000   -1.34906455890000   -0.29236767010000
C         1.71754103530000   -0.63935330250000   -0.41886324060000
C         1.58617308220000    0.63571389170000    0.13846931290000
N         0.40012929140000    1.35091677450000    0.01015607800000
C        -0.83179377850000    0.68296737010000   -0.01507345000000
C        -1.06029745420000   -0.42017755940000    0.80659381170000
C        -2.27767698460000   -1.06768400950000    0.78226652010000
C        -3.30434239870000   -0.63846800920000   -0.05709134090000
C        -4.60040290450000   -1.33034940000000   -0.07843914500000
C        -5.19025524860000   -1.77176626310000    1.10414781580000
C        -6.41101684870000   -2.41977212040000    1.08344582110000
C        -7.06141050960000   -2.64271971590000   -0.11864785730000
C        -6.48349648420000   -2.21073568950000   -1.30066535110000
C        -5.26520399210000   -1.55803148640000   -1.28154052310000
C        -3.06920594630000    0.46582404650000   -0.87435402820000
C        -1.85455365330000    1.11866020710000   -0.85658559410000
C         0.42403283350000    2.74904855600000   -0.09479576940000
C         1.41542788710000    3.38613708660000   -0.83983006850000
C         1.43194754960000    4.76381881790000   -0.93971664390000
C         0.46061620120000    5.52474485010000   -0.30997344070000
C        -0.53029940720000    4.89556710860000    0.42563966670000
C        -0.55058331410000    3.51891273290000    0.53843232210000
C         2.67556097080000    1.17574374850000    0.82774774560000
C         3.84691371820000    0.46386261110000    0.94835535930000
H         6.01695328010000   -0.97414015030000    1.10690322420000
H         2.95681288000000   -2.32587849700000   -0.74230277380000
H         0.88861532320000   -1.06679310620000   -0.96314781090000
H        -0.27658856540000   -0.76342236340000    1.46614010110000
H        -2.43173301370000   -1.92885776410000    1.41554115510000
H        -4.69650398960000   -1.58583633870000    2.04701076430000
H        -6.85875243830000   -2.75091920880000    2.00933451630000
H        -8.01422029800000   -3.15091217430000   -0.13421904680000
H        -6.98408396190000   -2.38558467120000   -2.24205833040000
H        -4.81172346620000   -1.23915142010000   -2.20889782190000
H        -3.85433696890000    0.82600318640000   -1.52264515790000
H        -1.68828059060000    1.97308735520000   -1.49635787800000
H         2.16655359080000    2.79356928380000   -1.34142104240000
H         2.20395494670000    5.24568192490000   -1.52131868510000
H         0.47516634210000    6.60076699960000   -0.39305648270000
H        -1.28954029700000    5.48121247980000    0.92258981590000
H        -1.31932047490000    3.02996649470000    1.11875392650000
H         2.58977149510000    2.15551239580000    1.27372322360000
H         4.67462790310000    0.89722958690000    1.49068188670000
$end

$rem
BASIS = 6-31G*
GUI = 2
METHOD = B3LYP
PRINT_ORBITALS false
MOLDEN_FORMAT false
--------------------------------------------------------------

             Standard Nuclear Orientation (Angstroms)
    I     Atom           X                Y                Z
 ----------------------------------------------------------------
    1      F      -6.7376517478     3.5821293826     0.0374173126
    2      C      -5.5517539660     2.9932546730    -0.1285080280
    3      F      -4.7638902387     3.8067110014    -0.8251955849
    4      C      -5.2685993566     1.7898313060     0.3500079487
    5      C      -4.0312216797     1.0406066895     0.2434027769
    6      C      -2.8974026052     1.5047014875    -0.4296695173
    7      C      -1.7529799124     0.7420509210    -0.4964415504
    8      C      -1.6921951797    -0.5159821928     0.1096371283
    9      N      -0.5350079725    -1.2847287826     0.0416241008
   10      C       0.7248043357    -0.6706198221     0.0285658213
   11      C       0.9778615587     0.4514942378     0.8166659626
   12      C       2.2222427429     1.0458378536     0.8048137139
   13      C       3.2522626999     0.5431024592     0.0116517647
   14      C       4.5770530529     1.1785490217     0.0034903095
   15      C       5.1524603829     1.6380780327     1.1862946244
   16      C       6.4001404625     2.2329116622     1.1781447745
   17      C       7.0925445326     2.3837730706    -0.0116300761
   18      C       6.5294509404     1.9331805322    -1.1938534671
   19      C       5.2840777022     1.3334937831    -1.1870393250
   20      C       2.9924101095    -0.5797151742    -0.7722012757
   21      C       1.7507041138    -1.1797369702    -0.7666310558
   22      C      -0.6162806180    -2.6835344143    -0.0140203930
   23      C      -1.6132450685    -3.3053786862    -0.7644826777
   24      C      -1.6864015945    -4.6838902829    -0.8155814087
   25      C      -0.7665839674    -5.4612777667    -0.1309838994
   26      C       0.2298210450    -4.8476593270     0.6103355183
   27      C       0.3063355907    -3.4698557228     0.6744732042
   28      C      -2.8225090974    -0.9838700007     0.7856359616
   29      C      -3.9649547001    -0.2193427472     0.8464991884
   30      H      -6.0745060680     1.3136106061     0.8901811099
   31      H      -2.9089357591     2.4661682699    -0.9159180292
   32      H      -0.8916525934     1.1138404113    -1.0311902201
   33      H       0.1917443435     0.8515302953     1.4403716644
   34      H       2.3957243037     1.9225428222     1.4111822529
   35      H       4.6252596405     1.5080164991     2.1203685813
   36      H       6.8359616360     2.5788548149     2.1043081878
   37      H       8.0664525049     2.8504822279    -0.0174912833
   38      H       7.0629603276     2.0519449455    -2.1258639169
   39      H       4.8430888523     0.9999860792    -2.1152753345
   40      H       3.7789058828    -0.9963035782    -1.3840179350
   41      H       1.5654922756    -2.0494313501    -1.3800879154
   42      H      -2.3239523813    -2.7006270582    -1.3086246747
   43      H      -2.4620918424    -5.1539579485    -1.4019170110
   44      H      -0.8252273314    -6.5380657059    -0.1760044998
   45      H       0.9490598188    -5.4460122570     1.1498316143
   46      H       1.0791008186    -2.9926256082     1.2591814484
   47      H      -2.7914263147    -1.9492578122     1.2686067655
   48      H      -4.8252735730    -0.5971733682     1.3795388010
 ----------------------------------------------------------------

    9   -1256.6185092721      4.40e-06  Convergence criterion met
 Total energy in the final basis set =    -1256.6185092721

                    Orbital Energies (a.u.)
 --------------------------------------------------------------

 Alpha MOs
 -- Occupied --
-24.7397 -24.7289 -14.3689 -10.3504 -10.2285 -10.2278 -10.2278 -10.1994
-10.1990 -10.1925 -10.1912 -10.1900 -10.1888 -10.1887 -10.1880 -10.1880
-10.1871 -10.1865 -10.1863 -10.1859 -10.1857 -10.1857 -10.1854 -10.1852
-10.1850 -10.1838 -10.1838 -10.1836 -10.1835  -1.2796  -1.2190  -0.9823
 -0.8718  -0.8657  -0.8555  -0.8431  -0.8031  -0.7794  -0.7603  -0.7534
 -0.7502  -0.7461  -0.7428  -0.7332  -0.7037  -0.6491  -0.6392  -0.6243
 -0.6152  -0.6119  -0.6056  -0.5934  -0.5891  -0.5721  -0.5667  -0.5425
 -0.5392  -0.5290  -0.5168  -0.5136  -0.4948  -0.4771  -0.4770  -0.4657
 -0.4590  -0.4514  -0.4459  -0.4430  -0.4420  -0.4361  -0.4330  -0.4323
 -0.4273  -0.4255  -0.4249  -0.4186  -0.4179  -0.4071  -0.3871  -0.3838
 -0.3787  -0.3735  -0.3707  -0.3613  -0.3607  -0.3552  -0.3469  -0.3434
 -0.3375  -0.3345  -0.3245  -0.2913  -0.2714  -0.2615  -0.2523  -0.2512
 -0.2502  -0.2403  -0.2252  -0.1772

          Ground-State Mulliken Net Atomic Charges

     Atom                 Charge (a.u.)
  ----------------------------------------
      1 F                    -0.252037
      2 C                     0.536750
      3 F                    -0.237832
      4 C                    -0.298759
      5 C                     0.198711
      6 C                    -0.205716
      7 C                    -0.176741
      8 C                     0.299029
      9 N                    -0.653218
     10 C                     0.284656
     11 C                    -0.173254
     12 C                    -0.184841
     13 C                     0.091658
     14 C                     0.087424
     15 C                    -0.171538
     16 C                    -0.132811
     17 C                    -0.125151
     18 C                    -0.133034
     19 C                    -0.171559
     20 C                    -0.184556
     21 C                    -0.172782
     22 C                     0.276792
     23 C                    -0.165656
     24 C                    -0.138395
     25 C                    -0.127398
     26 C                    -0.138222
     27 C                    -0.164981
     28 C                    -0.176778
     29 C                    -0.205783
     30 H                     0.156814
     31 H                     0.140359
     32 H                     0.149960
     33 H                     0.148450
     34 H                     0.134988
     35 H                     0.129397
     36 H                     0.127941
     37 H                     0.126753
     38 H                     0.127982
     39 H                     0.129671
     40 H                     0.134643
     41 H                     0.148197
     42 H                     0.147243
     43 H                     0.130990
     44 H                     0.126053
     45 H                     0.131296
     46 H                     0.146968
     47 H                     0.149407
     48 H                     0.128909
  ----------------------------------------
  Sum of atomic charges =     0.000000

                    Cartesian Multipole Moments
 -----------------------------------------------------------------
    Charge (ESU x 10^10)
                 0.0000
    Dipole Moment (Debye)
         X       0.7889      Y      -1.4750      Z       0.3347
       Tot       1.7059
    Quadrupole Moments (Debye-Ang)
        XX    -158.5967     XY      10.1212     YY    -160.3543
        XZ      -2.2682     YZ       2.0714     ZZ    -159.2945

 Total job time:  163.59s(wall), 162.52s(cpu)
        *  Thank you very much for using Q-Chem.  Have a nice day.  *
