 Q-Chem 5.2, Q-Chem, Inc., Pleasanton, CA (2019)
 Q-Chem 5.2.1 for Intel X86 EM64T Linux

User input:
--------------------------------------------------------------
$molecule
0 1
C         2.25162508730000   -3.44211329120000   -0.07222446150000
C         1.02538862440000   -2.94602967010000   -0.19486095100000
C         0.59716603280000   -1.55857166170000   -0.08097756060000
C        -0.76188488470000   -1.27289280270000   -0.14299025340000
C        -1.28317259510000    0.01530461640000   -0.03926620090000
C        -2.74079644720000    0.25269267260000   -0.01343267050000
O        -3.25555310870000    1.34155675890000   -0.14973006020000
O        -3.53764181360000   -0.80585972250000    0.21109571510000
C        -0.39354890680000    1.11766834730000    0.06450506110000
N        -0.85399509840000    2.37841275530000    0.11914078540000
C         0.99866146350000    0.85629926440000    0.12790288770000
C         1.99832793540000    1.92377326930000    0.25171417830000
C         2.00815046090000    3.05925506470000   -0.43358938090000
C         1.44352248270000   -0.45370554190000    0.08488965630000
F         2.77662375750000   -0.64095720960000    0.16589961600000
H         2.42454929350000   -4.49964379440000   -0.17917848080000
H         3.11787472470000   -2.84178394080000    0.13489248820000
H         0.21001498700000   -3.63086330070000   -0.39958458000000
H        -1.42315715340000   -2.11478013840000   -0.30689535880000
H        -3.04425994940000   -1.61856680700000    0.38044321210000
H        -1.85773786960000    2.50939559490000    0.11653418760000
H        -0.22994774450000    3.11925529790000    0.38763456970000
H         2.81068018400000    1.70515530240000    0.93395239330000
H         1.26925108300000    3.29091455060000   -1.18284568660000
H         2.79420612240000    3.78265813800000   -0.29920236340000
$end

$rem
BASIS = 6-31G*
GUI = 2
METHOD = B3LYP
PRINT_ORBITALS false
MOLDEN_FORMAT false
--------------------------------------------------------------

             Standard Nuclear Orientation (Angstroms)
    I     Atom           X                Y                Z
 ----------------------------------------------------------------
    1      C       3.5368164232     2.0869219879     0.0582549118
    2      C       2.2184112049     2.1888917850     0.1855513040
    3      C       1.2166226596     1.1374627939     0.0746435644
    4      C      -0.1271879362     1.4870009233     0.1415282390
    5      C      -1.1680515454     0.5658899303     0.0409815717
    6      C      -2.5789137418     1.0026138499     0.0202973887
    7      O      -3.5243048700     0.2569416938     0.1595275860
    8      O      -2.8216320205     2.3054008077    -0.2027332969
    9      C      -0.8629289976    -0.8172833699    -0.0645477096
   10      N      -1.8369205780    -1.7409393940    -0.1162407509
   11      C       0.4997370273    -1.2033556899    -0.1329016804
   12      C       0.9188531444    -2.6042962956    -0.2588784301
   13      C       0.4242813951    -3.6256369397     0.4276479216
   14      C       1.4816756642    -0.2286479851    -0.0928334818
   15      F       2.7583456911    -0.6547423712    -0.1785191053
   16      H       4.1630528718     2.9566768544     0.1634551553
   17      H       4.0442645243     1.1636945431    -0.1510981490
   18      H       1.7941444185     3.1651180483     0.3922467590
   19      H      -0.3436736293     2.5352220767     0.3067146220
   20      H      -2.0184982783     2.8133603860    -0.3746353121
   21      H      -2.7939213318    -1.4111288470    -0.1101244069
   22      H      -1.6091216221    -2.6820599564    -0.3860025121
   23      H       1.7411572543    -2.7700570688    -0.9440778829
   24      H      -0.3378337546    -3.5043031539     1.1796333142
   25      H       0.8053657090    -4.6233717361     0.2914297084
 ----------------------------------------------------------------

    9    -730.1985506281      6.24e-06  Convergence criterion met
 Total energy in the final basis set =     -730.1985506281

                    Orbital Energies (a.u.)
 --------------------------------------------------------------

 Alpha MOs
 -- Occupied --
-24.7244 -19.1962 -19.1358 -14.3490 -10.3236 -10.2877 -10.2589 -10.2178
-10.2094 -10.2090 -10.2079 -10.2067 -10.1974 -10.1940 -10.1781  -1.2361
 -1.1079  -1.0234  -0.9457  -0.8708  -0.8169  -0.7924  -0.7560  -0.7307
 -0.6608  -0.6478  -0.6309  -0.6096  -0.5713  -0.5613  -0.5546  -0.5291
 -0.4991  -0.4842  -0.4799  -0.4685  -0.4644  -0.4539  -0.4448  -0.4342
 -0.4208  -0.4050  -0.3973  -0.3933  -0.3892  -0.3673  -0.3484  -0.3423
 -0.3195  -0.3048  -0.2807  -0.2759  -0.2481  -0.2035

          Ground-State Mulliken Net Atomic Charges

     Atom                 Charge (a.u.)
  ----------------------------------------
      1 C                    -0.364850
      2 C                    -0.114340
      3 C                     0.140146
      4 C                    -0.337276
      5 C                     0.065192
      6 C                     0.574294
      7 O                    -0.495180
      8 O                    -0.573183
      9 C                     0.278634
     10 N                    -0.838619
     11 C                     0.025376
     12 C                    -0.125670
     13 C                    -0.356761
     14 C                     0.243312
     15 F                    -0.276383
     16 H                     0.138821
     17 H                     0.157325
     18 H                     0.123244
     19 H                     0.127085
     20 H                     0.418593
     21 H                     0.386117
     22 H                     0.332761
     23 H                     0.152914
     24 H                     0.165616
     25 H                     0.152832
  ----------------------------------------
  Sum of atomic charges =     0.000000

                    Cartesian Multipole Moments
 -----------------------------------------------------------------
    Charge (ESU x 10^10)
                 0.0000
    Dipole Moment (Debye)
         X       2.0070      Y      -0.5660      Z      -0.8224
       Tot       2.2416
    Quadrupole Moments (Debye-Ang)
        XX    -100.9478     XY       4.5471     YY     -69.5826
        XZ       0.7096     YZ       0.9453     ZZ     -86.9527

 Total job time:  42.70s(wall), 42.57s(cpu)
        *  Thank you very much for using Q-Chem.  Have a nice day.  *
