 Q-Chem 5.2, Q-Chem, Inc., Pleasanton, CA (2019)
 Q-Chem 5.2.1 for Intel X86 EM64T Linux

User input:
--------------------------------------------------------------
$molecule
0 1
C         3.87121404150000    0.40615408300000   -0.51788324120000
C         2.81667956200000    0.90567859130000    0.11346690740000
C         1.45186744430000    0.38976749490000    0.09478410980000
C         0.40360856430000    1.31201081210000    0.18148333000000
C        -0.92466704320000    0.92553200590000    0.14269074910000
C        -2.01463045360000    1.88517183720000    0.25558913560000
C        -1.96437586690000    3.14503952370000   -0.15893957220000
C        -1.15635472420000   -0.46574512030000    0.01724525910000
N        -2.40780057020000   -0.98116483340000   -0.14955821770000
N        -2.63375305010000   -2.36870094200000   -0.05001432340000
N        -0.16748660320000   -1.35355813080000    0.01164326610000
C         1.09949853510000   -0.96519681380000    0.04847499090000
C         2.09058995980000   -2.08631125740000    0.09268355420000
H         4.83481866390000    0.88342252970000   -0.45384376030000
H         3.81728069160000   -0.46848779370000   -1.14077959070000
H         2.93292934660000    1.82534602770000    0.67670291520000
H         0.64106129510000    2.36065111630000    0.29372913160000
H        -2.92346590170000    1.52219754470000    0.72220268380000
H        -1.09833044850000    3.54981451360000   -0.65441043390000
H        -2.79716154900000    3.81485565780000   -0.03114246800000
H        -3.20383572220000   -0.42418367540000    0.12521930930000
H        -1.90759527010000   -2.76816347670000    0.54686466530000
H        -2.50696767630000   -2.78424105110000   -0.97353783260000
H         1.61297336610000   -2.96438174700000    0.52079010810000
H         2.96221180440000   -1.81296223080000    0.68183948710000
H         2.41621409210000   -2.34269702850000   -0.91472484090000
$end

$rem
BASIS = 6-31G*
GUI = 2
METHOD = B3LYP
PRINT_ORBITALS false
MOLDEN_FORMAT false
--------------------------------------------------------------

             Standard Nuclear Orientation (Angstroms)
    I     Atom           X                Y                Z
 ----------------------------------------------------------------
    1      C       3.8149597509     0.6946494432    -0.4296833958
    2      C       2.7103141000     1.1172471151     0.1714321561
    3      C       1.3900116946     0.4975435100     0.1267731938
    4      C       0.2722235418     1.3370258544     0.1788808652
    5      C      -1.0211213267     0.8489934925     0.1135334374
    6      C      -2.1839805921     1.7227882374     0.1904487168
    7      C      -2.2207223119     2.9788901775    -0.2367328872
    8      C      -1.1421648598    -0.5571023824    -0.0018383442
    9      N      -2.3459503483    -1.1689511333    -0.1919414468
   10      N      -2.4669663843    -2.5687922955    -0.0823065872
   11      N      -0.0881668308    -1.3660842705     0.0253635728
   12      C       1.1439888715    -0.8809164308     0.0873064647
   13      C       2.2169297886    -1.9218634526     0.1669386880
   14      H       4.7372359419     1.2453288248    -0.3485727316
   15      H       3.8433480597    -0.1872770599    -1.0439364609
   16      H       2.7420134677     2.0483132601     0.7269931251
   17      H       0.4256523776     2.4018406120     0.2849870910
   18      H      -3.0731858968     1.2951917949     0.6398211910
   19      H      -1.3766866006     3.4445965387    -0.7164100049
   20      H      -3.1053310666     3.5836922516    -0.1357400760
   21      H      -3.1887884028    -0.6724507697     0.0580866828
   22      H      -1.7268072456    -2.9055641270     0.5356652149
   23      H      -2.2864971038    -2.9818586560    -0.9979761815
   24      H       1.7980395703    -2.8301278718     0.5935384380
   25      H       3.0505797505    -1.5767150815     0.7731147240
   26      H       2.5853801505    -2.1617092072    -0.8297331529
 ----------------------------------------------------------------

    9    -553.0739058918      2.30e-06  Convergence criterion met
 Total energy in the final basis set =     -553.0739058918

                    Orbital Energies (a.u.)
 --------------------------------------------------------------

 Alpha MOs
 -- Occupied --
-14.3726 -14.3460 -14.3124 -10.2536 -10.2228 -10.1969 -10.1953 -10.1931
-10.1876 -10.1850 -10.1825 -10.1744 -10.1714  -1.0004  -0.9306  -0.8301
 -0.8186  -0.7823  -0.7517  -0.7372  -0.6894  -0.6322  -0.6203  -0.5867
 -0.5521  -0.5305  -0.5202  -0.4951  -0.4816  -0.4612  -0.4541  -0.4425
 -0.4253  -0.4189  -0.4046  -0.3927  -0.3881  -0.3721  -0.3625  -0.3447
 -0.3189  -0.3054  -0.2818  -0.2653  -0.2441  -0.2430  -0.1921

          Ground-State Mulliken Net Atomic Charges

     Atom                 Charge (a.u.)
  ----------------------------------------
      1 C                    -0.348287
      2 C                    -0.135404
      3 C                     0.108945
      4 C                    -0.227449
      5 C                     0.139230
      6 C                    -0.136634
      7 C                    -0.341334
      8 C                     0.448314
      9 N                    -0.530051
     10 N                    -0.567926
     11 N                    -0.582720
     12 C                     0.260064
     13 C                    -0.515585
     14 H                     0.139361
     15 H                     0.144421
     16 H                     0.129032
     17 H                     0.134147
     18 H                     0.121980
     19 H                     0.145772
     20 H                     0.143452
     21 H                     0.334532
     22 H                     0.323710
     23 H                     0.320789
     24 H                     0.162027
     25 H                     0.165810
     26 H                     0.163803
  ----------------------------------------
  Sum of atomic charges =     0.000000

                    Cartesian Multipole Moments
 -----------------------------------------------------------------
    Charge (ESU x 10^10)
                 0.0000
    Dipole Moment (Debye)
         X       0.0712      Y       0.7441      Z      -0.0038
       Tot       0.7475
    Quadrupole Moments (Debye-Ang)
        XX     -73.2457     XY      -3.3903     YY     -72.9361
        XZ      -0.5454     YZ       1.9845     ZZ     -78.2874

 Total job time:  36.21s(wall), 36.09s(cpu)
        *  Thank you very much for using Q-Chem.  Have a nice day.  *
