 Q-Chem 5.4, Q-Chem, Inc., Pleasanton, CA (2021)
 Q-Chem 5.4.2 for Intel X86 EM64T Linux

User input:
--------------------------------------------------------------
$molecule
0 1
C            0.75811528080000       -4.19507271950000        0.06671225420000
C            1.38470786910000       -3.12535781510000       -0.40309876650000
C            0.88126805190000       -1.75573445060000       -0.28958836370000
C           -0.46488614920000       -1.51191305150000       -0.41407612960000
C           -1.01378277220000       -0.21563837590000       -0.34712327810000
C           -2.45840083260000       -0.05687468120000       -0.48551199120000
C           -3.21213967260000        0.82872440380000        0.14682118150000
F           -2.83220848360000        1.70853779520000        1.05669569460000
F           -4.53001035870000        0.91286742960000       -0.02223624290000
C           -0.14350166340000        0.83921353650000       -0.19098779360000
F           -0.60988083070000        2.10403538770000       -0.21568172170000
C            1.24828298380000        0.65823074090000       -0.04958838900000
C            2.11596177900000        1.75536249390000        0.13313227070000
C            3.45772313580000        1.55693333300000        0.29763344640000
C            3.97971250430000        0.25637981880000        0.29260285510000
C            3.15925663480000       -0.82379108250000        0.10953997980000
C            1.77244014120000       -0.66165188920000       -0.08298714850000
H            1.16043886720000       -5.18568255300000       -0.05754062740000
H           -0.16831268820000       -4.12121899700000        0.61124364980000
H            2.32907478150000       -3.24353901670000       -0.91707579980000
H           -1.13890622270000       -2.33781555570000       -0.58366033120000
H           -2.96910729010000       -0.74538654800000       -1.14180831250000
H            1.69567562260000        2.74952791090000        0.14898141630000
H            4.11971672360000        2.39773789190000        0.43972285730000
H            5.03979124460000        0.11007084910000        0.43837208620000
H            3.57776311140000       -1.81793049740000        0.12531636670000
$end

$rem
BASIS = 6-31G*
GUI = 2
METHOD = B3LYP
PRINT_ORBITALS false
MOLDEN_FORMAT false
$end
--------------------------------------------------------------

             Standard Nuclear Orientation (Angstroms)
    I     Atom           X                Y                Z
 ----------------------------------------------------------------
    1      C      -1.8243799325    -3.7345382536    -0.4428326464
    2      C      -2.1230602522    -2.5781903437     0.1327368295
    3      C      -1.2462567567    -1.4062723921     0.1380628667
    4      C       0.1116277563    -1.5715987241     0.2641345327
    5      C       1.0103522877    -0.4869631958     0.3083861874
    6      C       2.4379596382    -0.7629301039     0.4389932536
    7      C       3.4217683426    -0.0764069278    -0.1205240216
    8      F       3.3213957589     0.9555691836    -0.9398173706
    9      F       4.7061814494    -0.3899841114     0.0356679371
   10      C       0.4815133550     0.7829789600     0.2630390900
   11      F       1.2910695290     1.8528369651     0.3968908100
   12      C      -0.9018321839     1.0228772731     0.1265950080
   13      C      -1.4157202014     2.3348417620     0.0586266343
   14      C      -2.7558838839     2.5458849160    -0.1031769458
   15      C      -3.6293207443     1.4551695334    -0.2098805354
   16      C      -3.1557983391     0.1728965689    -0.1393000678
   17      C      -1.7832357681    -0.0882669560     0.0463916172
   18      H      -2.4956420683    -4.5750861601    -0.4041383208
   19      H      -0.9092817220    -3.8796619175    -0.9921704133
   20      H      -3.0677006731    -2.4673607915     0.6478478253
   21      H       0.5180559765    -2.5681657542     0.3468815184
   22      H       2.7215624685    -1.6266035913     1.0214295845
   23      H      -0.7275344297     3.1636090474     0.1279206117
   24      H      -3.1468445945     3.5506690483    -0.1573598546
   25      H      -4.6849433581     1.6333436301    -0.3524877141
   26      H      -3.8418921403    -0.6534345470    -0.2401064392
 ----------------------------------------------------------------

    9    -838.3864318072      5.19e-06  Convergence criterion met
 Total energy in the final basis set =     -838.3864318072

                    Orbital Energies (a.u.)
 --------------------------------------------------------------

 Alpha MOs
 -- Occupied --
-24.7384 -24.7335 -24.7123 -10.3574 -10.2737 -10.2117 -10.2048 -10.2043
-10.2043 -10.2011 -10.1971 -10.1951 -10.1939 -10.1936 -10.1930 -10.1926
-10.1848  -1.2836  -1.2255  -1.2209  -0.8903  -0.8459  -0.8161  -0.7885
 -0.7594  -0.7463  -0.7167  -0.6554  -0.6393  -0.6176  -0.6154  -0.5735
 -0.5681  -0.5468  -0.5411  -0.5227  -0.5155  -0.4894  -0.4792  -0.4669
 -0.4643  -0.4494  -0.4417  -0.4379  -0.4320  -0.4303  -0.4204  -0.4126
 -0.4006  -0.3896  -0.3842  -0.3705  -0.3448  -0.3417  -0.3388  -0.3068
 -0.2758  -0.2650  -0.2372  -0.2074

          Ground-State Mulliken Net Atomic Charges

     Atom                 Charge (a.u.)
  ----------------------------------------
      1 C                    -0.336391
      2 C                    -0.132888
      3 C                     0.114317
      4 C                    -0.268908
      5 C                     0.117959
      6 C                    -0.319175
      7 C                     0.567695
      8 F                    -0.228188
      9 F                    -0.247363
     10 C                     0.234380
     11 F                    -0.283692
     12 C                     0.058379
     13 C                    -0.181399
     14 C                    -0.132662
     15 C                    -0.128316
     16 C                    -0.199527
     17 C                     0.083281
     18 H                     0.144381
     19 H                     0.146474
     20 H                     0.140679
     21 H                     0.135705
     22 H                     0.168945
     23 H                     0.146567
     24 H                     0.133974
     25 H                     0.132019
     26 H                     0.133755
  ----------------------------------------
  Sum of atomic charges =     0.000000

                    Cartesian Multipole Moments
 -----------------------------------------------------------------
    Charge (ESU x 10^10)
                 0.0000
    Dipole Moment (Debye)
         X      -1.8102      Y      -1.0588      Z       0.2529
       Tot       2.1123
    Quadrupole Moments (Debye-Ang)
        XX     -90.2087     XY      -3.5051     YY     -86.2018
        XZ       1.0318     YZ      -0.4085     ZZ     -96.7569

 Total job time:  97.08s(wall), 86.90s(cpu)
        *  Thank you very much for using Q-Chem.  Have a nice day.  *
