 Q-Chem 5.2, Q-Chem, Inc., Pleasanton, CA (2019)
 Q-Chem 5.2.1 for Intel X86 EM64T Linux

User input:
--------------------------------------------------------------
$molecule
0 1
C         2.48390496280000    3.02253826120000    0.00016417180000
C         2.57236508620000    1.69658882220000    0.00082369490000
C         1.44816077540000    0.78803130330000   -0.00032470030000
C         0.08277520510000    1.12510812050000   -0.00067993050000
C        -0.63805252950000   -0.05440905470000   -0.00119340090000
C        -2.06420247790000   -0.33116929190000   -0.00065518640000
O        -2.53120050720000   -1.45090535880000   -0.00069718840000
O        -2.80925689620000    0.78697738790000    0.00017044730000
C        -4.21382085880000    0.58751028500000    0.00190913330000
N         0.25087358370000   -1.08941150880000   -0.00115187840000
C         1.51993881880000   -0.61732446320000   -0.00059876040000
C         2.68031203830000   -1.46621769470000   -0.00020150680000
C         2.66904606370000   -2.79827997350000    0.00186604430000
H         3.36216137590000    3.64447328060000    0.00138376780000
H         1.53709407780000    3.53374632440000   -0.00168034860000
H         3.55027209360000    1.23349245100000    0.00259773310000
H        -0.34220542870000    2.10751083950000   -0.00055091070000
H        -4.66108850890000    1.57801832580000   -0.00196904160000
H        -4.51834811490000    0.03229179690000    0.89187189810000
H        -4.51956523550000    0.02457987970000   -0.88275724500000
H        -0.03402980110000   -2.05566703570000   -0.00177591920000
H         3.62807509150000   -0.94683358140000   -0.00151352630000
H         1.76006046360000   -3.37599814820000    0.00361918830000
H         3.58426854960000   -3.36315510750000    0.00192098830000
$end

$rem
BASIS = 6-31G*
GUI = 2
METHOD = B3LYP
PRINT_ORBITALS false
MOLDEN_FORMAT false
--------------------------------------------------------------

             Standard Nuclear Orientation (Angstroms)
    I     Atom           X                Y                Z
 ----------------------------------------------------------------
    1      C      -2.4302973236    -3.0393153429     0.0001858295
    2      C      -2.5346882460    -1.7145249167     0.0008224615
    3      C      -1.4214855262    -0.7925207213    -0.0003542743
    4      C      -0.0521471089    -1.1131619991    -0.0007180290
    5      C       0.6544513911     0.0749339225    -0.0012604023
    6      C       2.0771718167     0.3688157289    -0.0007423959
    7      O       2.5306774887     1.4940839732    -0.0008095150
    8      O       2.8356119427    -0.7402950135     0.0000953801
    9      C       4.2376769761    -0.5239601881     0.0018154779
   10      N      -0.2468506792     1.0991772009    -0.0012279907
   11      C      -1.5101500046     0.6118707889    -0.0006528311
   12      C      -2.6806426368     1.4467556476    -0.0002584435
   13      C      -2.6853881234     2.7788571512     0.0017850414
   14      H      -3.3010149589    -3.6717615813     0.0014259865
   15      H      -1.4774104073    -3.5391063564    -0.0016596143
   16      H      -3.5180907626    -1.2632158796     0.0025986200
   17      H       0.3846107772    -2.0903857128    -0.0005758883
   18      H       4.6968176482    -1.5090208328    -0.0020496684
   19      H       4.5355181208     0.0348945576     0.8917650089
   20      H       4.5366238901     0.0425884196    -0.8828642854
   21      H       0.0264182493     2.0687873024    -0.0018724446
   22      H      -3.6220945243     0.9160174293    -0.0015510030
   23      H      -1.7834120271     3.3674591410     0.0035180910
   24      H      -3.6073339903     3.3326910020     0.0018396066
 ----------------------------------------------------------------

    9    -592.8575376017      5.47e-06  Convergence criterion met
 Total energy in the final basis set =     -592.8575376017

                    Orbital Energies (a.u.)
 --------------------------------------------------------------

 Alpha MOs
 -- Occupied --
-19.1914 -19.1318 -14.3883 -10.3146 -10.2388 -10.2276 -10.2220 -10.2033
-10.1898 -10.1897 -10.1887 -10.1838 -10.1746  -1.1066  -1.0177  -0.9955
 -0.8158  -0.8057  -0.7621  -0.7448  -0.7103  -0.6384  -0.6220  -0.5958
 -0.5757  -0.5356  -0.5328  -0.4858  -0.4852  -0.4762  -0.4633  -0.4498
 -0.4360  -0.4266  -0.4255  -0.4137  -0.3902  -0.3834  -0.3744  -0.3562
 -0.3516  -0.3109  -0.3027  -0.3001  -0.2770  -0.2341  -0.2018

          Ground-State Mulliken Net Atomic Charges

     Atom                 Charge (a.u.)
  ----------------------------------------
      1 C                    -0.355093
      2 C                    -0.101390
      3 C                     0.045040
      4 C                    -0.238835
      5 C                     0.293249
      6 C                     0.574901
      7 O                    -0.518971
      8 O                    -0.457332
      9 C                    -0.216440
     10 N                    -0.718259
     11 C                     0.305384
     12 C                    -0.074475
     13 C                    -0.367264
     14 H                     0.140035
     15 H                     0.139767
     16 H                     0.124682
     17 H                     0.147767
     18 H                     0.164898
     19 H                     0.168667
     20 H                     0.168872
     21 H                     0.345627
     22 H                     0.142758
     23 H                     0.134117
     24 H                     0.152295
  ----------------------------------------
  Sum of atomic charges =     0.000000

                    Cartesian Multipole Moments
 -----------------------------------------------------------------
    Charge (ESU x 10^10)
                -0.0000
    Dipole Moment (Debye)
         X      -0.2511      Y      -0.2279      Z       0.0013
       Tot       0.3392
    Quadrupole Moments (Debye-Ang)
        XX     -64.3580     XY      -7.0934     YY     -72.0649
        XZ       0.0045     YZ       0.0009     ZZ     -78.7245

 Total job time:  30.46s(wall), 30.36s(cpu)
        *  Thank you very much for using Q-Chem.  Have a nice day.  *
