 Q-Chem 5.2, Q-Chem, Inc., Pleasanton, CA (2019)
 Q-Chem 5.2.1 for Intel X86 EM64T Linux

User input:
--------------------------------------------------------------
$molecule
0 1
C         3.54063415310000    1.17793478160000    0.27220047210000
C         2.30416354750000    1.48328689870000   -0.10145830310000
C         1.13943061390000    0.60231150640000   -0.05746387880000
C         1.20811726500000   -0.79218715430000   -0.01699371680000
F         2.38857220930000   -1.42394519180000   -0.02341244790000
C         0.05791383190000   -1.57097597000000    0.00068388570000
F         0.15519152830000   -2.90636169990000    0.02934787800000
C        -1.18748190940000   -0.96251168740000   -0.01542552320000
F        -2.28125328150000   -1.73671046690000    0.00637163060000
C        -1.32947123080000    0.42927762560000   -0.04752920190000
C        -2.67551456530000    0.99616638220000   -0.06902695640000
C        -3.02311598690000    2.23617760200000    0.25227971500000
C        -0.14295062270000    1.16289170990000   -0.07831085850000
F        -0.21620299550000    2.50344290370000   -0.14464890980000
H         4.32661321640000    1.90994768940000    0.20316350940000
H         3.82113519790000    0.21591516470000    0.66157749340000
H         2.08639714820000    2.48240418890000   -0.45434324460000
H        -3.44135420780000    0.28679853660000   -0.35355812790000
H        -2.32075773510000    2.98355011960000    0.57429550500000
H        -4.05460906190000    2.54044025530000    0.20752670420000
$end

$rem
BASIS = 6-31G*
GUI = 2
METHOD = B3LYP
PRINT_ORBITALS false
MOLDEN_FORMAT false
--------------------------------------------------------------

             Standard Nuclear Orientation (Angstroms)
    I     Atom           X                Y                Z
 ----------------------------------------------------------------
    1      C       3.3242799808     1.6482057681     0.2443107428
    2      C       2.0535887967     1.7558517446    -0.1237607347
    3      C       1.0403143903     0.7046286735    -0.0702725114
    4      C       1.3253004725    -0.6620190672    -0.0251162229
    5      F       2.5896218259    -1.1024896422    -0.0356272355
    6      C       0.3103555189    -1.6101567643     0.0016064838
    7      F       0.6143315629    -2.9140165803     0.0345878000
    8      C      -1.0145990255    -1.2028974051    -0.0099744597
    9      F      -1.9744940360    -2.1377047431     0.0205458678
   10      C      -1.3715329830     0.1497087756    -0.0463581824
   11      C      -2.7894663610     0.5002194964    -0.0626322274
   12      C      -3.3242058395     1.6724772443     0.2560494529
   13      C      -0.3137481912     1.0588132146    -0.0862172057
   14      F      -0.5949753057     2.3713460183    -0.1570204520
   15      H       3.9864708570     2.4932550070     0.1683692218
   16      H       3.7528851346     0.7432601640     0.6356521791
   17      H       1.6813568030     2.7073629425    -0.4790847127
   18      H      -3.4369755158    -0.3208922414    -0.3404424042
   19      H      -2.7451377517     2.5214220038     0.5715489109
   20      H      -4.3906765046     1.8123865670     0.2157721684
 ----------------------------------------------------------------

    9    -783.9601683695      3.64e-06  Convergence criterion met
 Total energy in the final basis set =     -783.9601683695

                    Orbital Energies (a.u.)
 --------------------------------------------------------------

 Alpha MOs
 -- Occupied --
-24.7334 -24.7330 -24.7304 -24.7270 -10.2998 -10.2988 -10.2959 -10.2932
-10.2262 -10.2261 -10.2059 -10.2056 -10.1908 -10.1906  -1.2537  -1.2464
 -1.2440  -1.2329  -0.8995  -0.8272  -0.8009  -0.7538  -0.7475  -0.6685
 -0.6555  -0.6143  -0.5858  -0.5763  -0.5712  -0.5452  -0.5265  -0.5155
 -0.5105  -0.4836  -0.4796  -0.4771  -0.4693  -0.4561  -0.4401  -0.4343
 -0.4311  -0.4183  -0.4108  -0.3830  -0.3709  -0.3619  -0.3517  -0.3268
 -0.2888  -0.2412  -0.2352

          Ground-State Mulliken Net Atomic Charges

     Atom                 Charge (a.u.)
  ----------------------------------------
      1 C                    -0.343407
      2 C                    -0.105467
      3 C                     0.014978
      4 C                     0.260412
      5 F                    -0.269243
      6 C                     0.264737
      7 F                    -0.272073
      8 C                     0.244726
      9 F                    -0.269312
     10 C                     0.023421
     11 C                    -0.109313
     12 C                    -0.341528
     13 C                     0.254614
     14 F                    -0.276268
     15 H                     0.149099
     16 H                     0.161624
     17 H                     0.151518
     18 H                     0.151552
     19 H                     0.160896
     20 H                     0.149033
  ----------------------------------------
  Sum of atomic charges =     0.000000

                    Cartesian Multipole Moments
 -----------------------------------------------------------------
    Charge (ESU x 10^10)
                 0.0000
    Dipole Moment (Debye)
         X      -0.2790      Y       1.4683      Z       0.0489
       Tot       1.4954
    Quadrupole Moments (Debye-Ang)
        XX     -71.1742     XY       1.3476     YY     -78.4194
        XZ       0.7910     YZ       0.3306     ZZ     -76.9972

 Total job time:  30.79s(wall), 30.69s(cpu)
        *  Thank you very much for using Q-Chem.  Have a nice day.  *
