 Q-Chem 5.2, Q-Chem, Inc., Pleasanton, CA (2019)
 Q-Chem 5.2.1 for Intel X86 EM64T Linux

User input:
--------------------------------------------------------------
$molecule
0 1
C         2.24427220500000   -3.45050085670000    0.06631299170000
C         1.01470497860000   -2.95881208280000   -0.03942579240000
C         0.59459783060000   -1.56468215430000   -0.01020531890000
C        -0.76588663860000   -1.27682377040000   -0.05091247940000
C        -1.27679321390000    0.01672779180000    0.00639647750000
C        -2.73687448030000    0.25517331630000   -0.00946115860000
O        -3.26382098540000    1.26656906260000    0.39658703890000
O        -3.51114428170000   -0.71899663990000   -0.51561839850000
C        -0.38707138990000    1.11522812780000    0.12186708510000
N        -0.85318411530000    2.37497128510000    0.22715083930000
C         1.00583498120000    0.85717257630000    0.09761444090000
C         2.00969821290000    1.92506721790000    0.15494912180000
C         1.96168265910000    3.06920866280000   -0.51458700190000
C         1.44767972920000   -0.45542097480000    0.05323999800000
F         2.78337707450000   -0.64179423530000    0.05665851070000
H         2.41054009190000   -4.51392500980000    0.03195759080000
H         3.11985373650000   -2.84056078270000    0.18897428040000
H         0.18961125070000   -3.65285810070000   -0.15413600870000
H        -1.44038535660000   -2.12362289420000   -0.07518952890000
H        -2.99734262730000   -1.44956572180000   -0.88368858760000
H        -1.84245180040000    2.48056811160000    0.41264383570000
H        -0.21222067670000    3.10401409660000    0.48964756640000
H         2.87465071430000    1.70129681890000    0.76700137690000
H         1.16334861680000    3.30866470020000   -1.19740818010000
H         2.75443122060000    3.79332395010000   -0.43476654010000
$end

$rem
BASIS = 6-31G*
GUI = 2
METHOD = B3LYP
PRINT_ORBITALS false
MOLDEN_FORMAT false
--------------------------------------------------------------

             Standard Nuclear Orientation (Angstroms)
    I     Atom           X                Y                Z
 ----------------------------------------------------------------
    1      C       3.5565755887     2.0594307402    -0.0831926366
    2      C       2.2375115298     2.1822220504     0.0156325012
    3      C       1.2293049615     1.1314693557    -0.0038713366
    4      C      -0.1133574437     1.4944602027     0.0266708240
    5      C      -1.1565558261     0.5742006807    -0.0227764854
    6      C      -2.5653332292     1.0261665456    -0.0185193931
    7      O      -3.4930547134     0.3598837898    -0.4196044848
    8      O      -2.8137175322     2.2524458644     0.4706025247
    9      C      -0.8634914182    -0.8101803189    -0.1189215537
   10      N      -1.8512265722    -1.7213368045    -0.2162441534
   11      C       0.4942242377    -1.2136046456    -0.0839068830
   12      C       0.9026234090    -2.6218844422    -0.1211325546
   13      C       0.3366830314    -3.6101023288     0.5591472833
   14      C       1.4846357467    -0.2451467877    -0.0482400447
   15      F       2.7589074850    -0.6867453405    -0.0407345993
   16      H       4.1882684999     2.9312171764    -0.0577228762
   17      H       4.0593289646     1.1164407799    -0.1914732064
   18      H       1.8180117946     3.1770391502     0.1156168924
   19      H      -0.3288946998     2.5556200414     0.0361650272
   20      H      -2.0253005738     2.6741383039     0.8363526768
   21      H      -2.7794862861    -1.3678523581    -0.4101295420
   22      H      -1.6110250680    -2.6655078763    -0.4654153938
   23      H       1.7771480024    -2.8240538812    -0.7270683909
   24      H      -0.4859366626    -3.4512727218     1.2366361713
   25      H       0.7135591078    -4.6165264648     0.4940364657
 ----------------------------------------------------------------

    9    -730.1993257221      6.21e-06  Convergence criterion met
 Total energy in the final basis set =     -730.1993257221

                    Orbital Energies (a.u.)
 --------------------------------------------------------------

 Alpha MOs
 -- Occupied --
-24.7243 -19.1980 -19.1375 -14.3485 -10.3250 -10.2876 -10.2583 -10.2174
-10.2093 -10.2092 -10.2074 -10.2064 -10.1972 -10.1936 -10.1780  -1.2360
 -1.1095  -1.0253  -0.9452  -0.8708  -0.8167  -0.7925  -0.7558  -0.7305
 -0.6605  -0.6480  -0.6310  -0.6094  -0.5709  -0.5607  -0.5539  -0.5283
 -0.4978  -0.4848  -0.4794  -0.4675  -0.4640  -0.4547  -0.4457  -0.4339
 -0.4212  -0.4048  -0.3971  -0.3962  -0.3881  -0.3668  -0.3476  -0.3432
 -0.3214  -0.3052  -0.2805  -0.2776  -0.2476  -0.2036

          Ground-State Mulliken Net Atomic Charges

     Atom                 Charge (a.u.)
  ----------------------------------------
      1 C                    -0.364616
      2 C                    -0.113422
      3 C                     0.137886
      4 C                    -0.330456
      5 C                     0.053651
      6 C                     0.574932
      7 O                    -0.489106
      8 O                    -0.569871
      9 C                     0.271360
     10 N                    -0.837429
     11 C                     0.030659
     12 C                    -0.126285
     13 C                    -0.357945
     14 C                     0.241726
     15 F                    -0.276590
     16 H                     0.138817
     17 H                     0.157140
     18 H                     0.122871
     19 H                     0.130295
     20 H                     0.418485
     21 H                     0.383813
     22 H                     0.333205
     23 H                     0.152819
     24 H                     0.165494
     25 H                     0.152568
  ----------------------------------------
  Sum of atomic charges =     0.000000

                    Cartesian Multipole Moments
 -----------------------------------------------------------------
    Charge (ESU x 10^10)
                 0.0000
    Dipole Moment (Debye)
         X       1.9427      Y      -0.6566      Z       0.4238
       Tot       2.0940
    Quadrupole Moments (Debye-Ang)
        XX    -100.4206     XY       4.8206     YY     -70.4760
        XZ      -2.4035     YZ       3.4023     ZZ     -86.6935

 Total job time:  42.74s(wall), 42.60s(cpu)
        *  Thank you very much for using Q-Chem.  Have a nice day.  *
