 Q-Chem 5.2, Q-Chem, Inc., Pleasanton, CA (2019)
 Q-Chem 5.2.1 for Intel X86 EM64T Linux

User input:
--------------------------------------------------------------
$molecule
0 1
C        -5.67005772000000   -0.82993385980000    0.04845313860000
C        -4.38822249450000   -1.16815597710000   -0.01594505940000
C        -3.24485418550000   -0.26197823230000   -0.01259654570000
C        -3.37468732560000    1.12796444580000   -0.00962735620000
C        -2.25196693070000    1.93499248020000   -0.00539755840000
C        -0.98435923430000    1.38568551040000   -0.00388815990000
C        -0.81812852240000   -0.00221599260000   -0.00843949590000
C         0.48017280120000   -0.64671179980000   -0.00834986400000
C         1.67862176210000   -0.04274911780000   -0.00173276460000
C         2.91485085980000   -0.77676814410000   -0.00179083890000
C         4.11125162390000   -0.20004908140000    0.00469923810000
F         4.34227098930000    1.10937090260000    0.01191714520000
F         5.26796249830000   -0.85648973190000    0.00470191670000
C        -1.96164192870000   -0.80207711560000   -0.01407899890000
H        -6.44581854000000   -1.57626706210000    0.04159167510000
H        -6.00290579950000    0.19166251680000    0.11294799310000
H        -4.12719370560000   -2.21823253230000   -0.07240592240000
H        -4.35350058460000    1.58079345680000   -0.01412910290000
H        -2.36733367510000    3.00926356580000   -0.00387560810000
H        -0.12446605630000    2.03648559360000   -0.00047887460000
H         0.45368215350000   -1.73001644990000   -0.01391596110000
H         1.76691795110000    1.03334535550000    0.00416968790000
H         2.88430135360000   -1.85536066530000   -0.00739590480000
H        -1.84660116550000   -1.87783813850000   -0.01782335710000
$end

$rem
BASIS = 6-31G*
GUI = 2
METHOD = B3LYP
PRINT_ORBITALS false
MOLDEN_FORMAT false
--------------------------------------------------------------

             Standard Nuclear Orientation (Angstroms)
    I     Atom           X                Y                Z
 ----------------------------------------------------------------
    1      C       5.5237430816     0.8154574376     0.0474839369
    2      C       4.2422732260     1.1551645206    -0.0163673034
    3      C       3.0978853625     0.2502736939    -0.0132985042
    4      C       3.2261528382    -1.1398159980    -0.0112462250
    5      C       2.1025248357    -1.9455810225    -0.0072384822
    6      C       0.8355373976    -1.3948471968    -0.0050516863
    7      C       0.6708696655    -0.0067566614    -0.0086779814
    8      C      -0.6267044765     0.6392014087    -0.0078425112
    9      C      -1.8258315407     0.0365853759    -0.0012988088
   10      C      -3.0612326516     0.7719967443    -0.0005702318
   11      C      -4.2582808520     0.1966220810     0.0058632305
   12      F      -4.4907738011    -1.1125410953     0.0123088616
   13      F      -5.4142512011     0.8543655029     0.0065826648
   14      C       1.8152822249     0.7918189254    -0.0141053691
   15      H       6.3003426635     1.5609202902     0.0408958248
   16      H       5.8554563470    -0.2065541242     0.1112433604
   17      H       3.9824133730     2.2055702070    -0.0720932408
   18      H       4.2044539813    -1.5937446445    -0.0162892577
   19      H       2.2166812860    -3.0199821660    -0.0064290918
   20      H      -0.0250877202    -2.0446800194    -0.0018332511
   21      H      -0.5989944940     1.7224788426    -0.0127270494
   22      H      -1.9153388110    -1.0394124618     0.0039426750
   23      H      -3.0294691336     1.8505575048    -0.0054977845
   24      H       1.7014528606     1.8677110506    -0.0171363045
 ----------------------------------------------------------------

    9    -662.9212347209      6.30e-06  Convergence criterion met
 Total energy in the final basis set =     -662.9212347209

                    Orbital Energies (a.u.)
 --------------------------------------------------------------

 Alpha MOs
 -- Occupied --
-24.7413 -24.7373 -10.3567 -10.2040 -10.2000 -10.1976 -10.1959 -10.1931
-10.1910 -10.1893 -10.1879 -10.1878 -10.1870 -10.1806  -1.2843  -1.2251
 -0.8690  -0.8291  -0.7975  -0.7730  -0.7368  -0.7188  -0.6507  -0.6284
 -0.6068  -0.5936  -0.5722  -0.5403  -0.5299  -0.5185  -0.5102  -0.4815
 -0.4637  -0.4508  -0.4411  -0.4381  -0.4301  -0.4177  -0.4157  -0.4052
 -0.3848  -0.3832  -0.3644  -0.3479  -0.3378  -0.3363  -0.3018  -0.2702
 -0.2295  -0.2043

          Ground-State Mulliken Net Atomic Charges

     Atom                 Charge (a.u.)
  ----------------------------------------
      1 C                    -0.354363
      2 C                    -0.108065
      3 C                     0.179526
      4 C                    -0.181714
      5 C                    -0.130433
      6 C                    -0.180195
      7 C                     0.187982
      8 C                    -0.195506
      9 C                    -0.109550
     10 C                    -0.226246
     11 C                     0.532596
     12 F                    -0.238372
     13 F                    -0.245014
     14 C                    -0.279318
     15 H                     0.144820
     16 H                     0.143346
     17 H                     0.126577
     18 H                     0.126603
     19 H                     0.130499
     20 H                     0.128137
     21 H                     0.122463
     22 H                     0.142251
     23 H                     0.158984
     24 H                     0.124992
  ----------------------------------------
  Sum of atomic charges =     0.000000

                    Cartesian Multipole Moments
 -----------------------------------------------------------------
    Charge (ESU x 10^10)
                 0.0000
    Dipole Moment (Debye)
         X       0.8932      Y       0.3214      Z      -0.0048
       Tot       0.9493
    Quadrupole Moments (Debye-Ang)
        XX     -80.0731     XY      -1.5070     YY     -71.7089
        XZ       0.0951     YZ      -0.1416     ZZ     -83.6789

 Total job time:  32.64s(wall), 32.53s(cpu)
        *  Thank you very much for using Q-Chem.  Have a nice day.  *
