 Q-Chem 5.2, Q-Chem, Inc., Pleasanton, CA (2019)
 Q-Chem 5.2.1 for Intel X86 EM64T Linux

User input:
--------------------------------------------------------------
$molecule
0 1
C         2.76990581630000    5.22446350840000   -0.23380734580000
O         1.84510696100000    4.16555874640000   -0.23934461760000
C         2.30760887570000    2.88675863210000   -0.12511276090000
C         3.65745553680000    2.54380044810000    0.00122503100000
C         4.04386717670000    1.22060822690000    0.09325866350000
C         1.32258429570000    1.90210438900000   -0.14499445160000
C         1.71360470000000    0.58161012990000   -0.02682095450000
C         3.07872212760000    0.22656099950000    0.07639908190000
C         3.12772662720000   -1.20784798090000    0.12852751610000
C         4.16368051670000   -2.12360436010000    0.25033420000000
C         3.85571960860000   -3.46917166780000    0.29799829680000
C         2.53402692130000   -3.90264304450000    0.24340100290000
C         1.48574118870000   -3.00893079710000    0.12203969430000
C         1.79068074680000   -1.65863132230000    0.04537000850000
N         0.94466528590000   -0.56639269240000   -0.04778477640000
C        -0.44722779410000   -0.61812966880000   -0.14950163250000
C        -1.05595357140000   -1.46709081650000   -1.07242185560000
C        -2.42996785670000   -1.51862236380000   -1.16377791730000
C        -3.24028777730000   -0.72459925090000   -0.34739246080000
C        -4.68059874410000   -0.83082454620000   -0.50188151380000
C        -5.63225004290000   -0.18372069280000    0.15549386710000
F        -5.49433897330000    0.72069301050000    1.11799590600000
F        -6.93099708440000   -0.36856293030000   -0.07803273850000
C        -2.62115005010000    0.12668033870000    0.57119541270000
C        -1.24668103140000    0.17642646300000    0.67044129390000
H         2.17705844750000    6.13204808890000   -0.33785911650000
H         3.47018811820000    5.15347070950000   -1.07254976320000
H         3.33048072130000    5.26632319470000    0.70586970100000
H         4.41528066450000    3.31041322970000    0.01845846600000
H         5.08978098820000    0.96647134290000    0.17365899820000
H         0.29271703470000    2.19659201300000   -0.26393144940000
H         5.18707557000000   -1.78567517860000    0.31181592730000
H         4.64719733740000   -4.19797272700000    0.38988883280000
H         2.32121446290000   -4.95987666810000    0.30132390500000
H         0.46374891960000   -3.35607961510000    0.10241323670000
H        -0.44398161290000   -2.06898993700000   -1.72692292320000
H        -2.88916029780000   -2.17770206830000   -1.88599532910000
H        -5.03459922330000   -1.52668138160000   -1.24904562780000
H        -3.21280678720000    0.74937128320000    1.22160183880000
H        -0.78125410550000    0.82121375090000    1.39994603270000
$end

$rem
BASIS = 6-31G*
GUI = 2
METHOD = B3LYP
PRINT_ORBITALS false
MOLDEN_FORMAT false
--------------------------------------------------------------

             Standard Nuclear Orientation (Angstroms)
    I     Atom           X                Y                Z
 ----------------------------------------------------------------
    1      C       3.2693365337    -4.8648215739     0.2226233461
    2      O       2.2275084380    -3.9208306004     0.2287991085
    3      C       2.5379019083    -2.5968211650     0.1150380466
    4      C       3.8385903247    -2.0989366710    -0.0114065511
    5      C       4.0682465757    -0.7397081207    -0.1029355279
    6      C       1.4449088519    -1.7335954441     0.1355372367
    7      C       1.6794504523    -0.3764989778     0.0178663432
    8      C       2.9939031031     0.1351631525    -0.0854581225
    9      C       2.8755051529     1.5655394933    -0.1369691583
   10      C       3.7977277908     2.5957652257    -0.2585727020
   11      C       3.3351415018     3.8963291162    -0.3055903428
   12      C       1.9719724674     4.1728989309    -0.2505523570
   13      C       1.0349344591     3.1631312880    -0.1293822124
   14      C       1.4950780375     1.8575036114    -0.0533604790
   15      N       0.7820481780     0.6741293490     0.0394779465
   16      C      -0.6063740611     0.5633673166     0.1414820529
   17      C      -1.3096092572     1.3352766447     1.0648888368
   18      C      -2.6802529269     1.2263970786     1.1565286607
   19      C      -3.3927794642     0.3437407138     0.3399504547
   20      C      -4.8356233591     0.2814355412     0.4947597649
   21      C      -5.7055921345    -0.4718268273    -0.1627173198
   22      F      -5.4635190015    -1.3536278813    -1.1256406212
   23      F      -7.0169725231    -0.4395955429     0.0711369654
   24      C      -2.6789321195    -0.4292604485    -0.5791269728
   25      C      -1.3080466392    -0.3185514005    -0.6786559217
   26      H       2.7862490711    -5.8353179730     0.3263912958
   27      H       3.9567863593    -4.7130997984     1.0612635328
   28      H       3.8307465462    -4.8407228074    -0.7171784718
   29      H       4.6805367725    -2.7720663166    -0.0291190207
   30      H       5.0774258908    -0.3654565524    -0.1834236902
   31      H       0.4563755214    -2.1460701883     0.2545413770
   32      H       4.8535002868     2.3793494114    -0.3203966580
   33      H       4.0363323234     4.7123868632    -0.3973129397
   34      H       1.6374650636     5.1981768549    -0.3079728700
   35      H      -0.0205285852     3.3888846071    -0.1094097599
   36      H      -0.7717442618     2.0040827691     1.7195364453
   37      H      -3.2129062051     1.8272149898     1.8791212620
   38      H      -5.2680777317     0.9310210841     1.2422951325
   39      H      -3.1941976672    -1.1163526056    -1.2296928873
   40      H      -0.7708675960    -0.9044450649    -1.4085307902
 ----------------------------------------------------------------

    9   -1138.9085328261      4.19e-06  Convergence criterion met
 Total energy in the final basis set =    -1138.9085328261

                    Orbital Energies (a.u.)
 --------------------------------------------------------------

 Alpha MOs
 -- Occupied --
-24.7475 -24.7366 -19.1738 -14.3808 -10.3597 -10.2431 -10.2375 -10.2357
-10.2212 -10.2177 -10.2110 -10.2065 -10.1986 -10.1968 -10.1963 -10.1955
-10.1873 -10.1818 -10.1816 -10.1809 -10.1799 -10.1785 -10.1784 -10.1778
-10.1748  -1.2881  -1.2271  -1.0638  -0.9999  -0.8797  -0.8500  -0.8458
 -0.8120  -0.7821  -0.7636  -0.7556  -0.7486  -0.7310  -0.7163  -0.6864
 -0.6600  -0.6348  -0.6302  -0.6116  -0.6041  -0.5800  -0.5765  -0.5725
 -0.5455  -0.5351  -0.5285  -0.5216  -0.5068  -0.4905  -0.4791  -0.4722
 -0.4683  -0.4607  -0.4539  -0.4495  -0.4435  -0.4399  -0.4372  -0.4329
 -0.4312  -0.4307  -0.4156  -0.4128  -0.4086  -0.3862  -0.3849  -0.3795
 -0.3682  -0.3649  -0.3567  -0.3484  -0.3369  -0.3333  -0.3238  -0.3176
 -0.2979  -0.2641  -0.2597  -0.2508  -0.2329  -0.1972  -0.1922

          Ground-State Mulliken Net Atomic Charges

     Atom                 Charge (a.u.)
  ----------------------------------------
      1 C                    -0.212618
      2 O                    -0.511082
      3 C                     0.386703
      4 C                    -0.216689
      5 C                    -0.204192
      6 C                    -0.250347
      7 C                     0.327048
      8 C                     0.063785
      9 C                     0.062569
     10 C                    -0.197743
     11 C                    -0.145155
     12 C                    -0.140057
     13 C                    -0.178679
     14 C                     0.311897
     15 N                    -0.743907
     16 C                     0.290443
     17 C                    -0.160722
     18 C                    -0.208572
     19 C                     0.204012
     20 C                    -0.299825
     21 C                     0.544562
     22 F                    -0.234213
     23 F                    -0.247640
     24 C                    -0.208479
     25 C                    -0.159352
     26 H                     0.167520
     27 H                     0.150274
     28 H                     0.149749
     29 H                     0.124841
     30 H                     0.131616
     31 H                     0.146164
     32 H                     0.126050
     33 H                     0.120219
     34 H                     0.123241
     35 H                     0.137745
     36 H                     0.154257
     37 H                     0.134364
     38 H                     0.160756
     39 H                     0.145365
     40 H                     0.156091
  ----------------------------------------
  Sum of atomic charges =     0.000000

                    Cartesian Multipole Moments
 -----------------------------------------------------------------
    Charge (ESU x 10^10)
                 0.0000
    Dipole Moment (Debye)
         X       0.6249      Y      -0.5034      Z       0.5285
       Tot       0.9609
    Quadrupole Moments (Debye-Ang)
        XX    -132.0089     XY     -11.4285     YY    -127.4982
        XZ      -3.4348     YZ       2.9194     ZZ    -142.2307

 Total job time:  121.48s(wall), 121.16s(cpu)
        *  Thank you very much for using Q-Chem.  Have a nice day.  *
