 Q-Chem 5.2, Q-Chem, Inc., Pleasanton, CA (2019)
 Q-Chem 5.2.1 for Intel X86 EM64T Linux

User input:
--------------------------------------------------------------
$molecule
0 1
C        -4.05661686500000    2.05448549330000   -0.36639063620000
C        -3.45934204370000    0.98825871230000    0.14818939840000
C        -2.02619111110000    0.70797032260000    0.04093977500000
C        -1.10897799420000    1.75816026940000    0.08375808910000
C         0.25127007470000    1.52064128120000    0.03199104000000
C         0.69558967390000    0.21580594580000   -0.06223099800000
S         2.45585285230000   -0.11482297150000   -0.08102744170000
C         2.87282863650000   -0.18887961490000    1.68913536570000
O         2.68573839840000   -1.41574706600000   -0.64890638240000
O         3.14364671540000    1.01003472470000   -0.65439139460000
C        -0.18554171850000   -0.84117702890000   -0.11505090330000
C        -1.55999842410000   -0.61695416090000   -0.06685259380000
C        -2.49427010880000   -1.73725349040000   -0.17840977260000
C        -2.25431432080000   -2.96498043160000    0.26212244830000
H        -5.11416265640000    2.21933336210000   -0.25160835870000
H        -3.51874499860000    2.79068973750000   -0.93998334650000
H        -4.04246077830000    0.25570431910000    0.69055093050000
H        -1.47400986980000    2.76938648610000    0.17934695690000
H         0.97175378580000    2.32286077160000    0.04895223710000
H         2.30142218780000   -0.99257542650000    2.13446554140000
H         2.62520818880000    0.76644015550000    2.13278450140000
H         3.93467946780000   -0.38402484860000    1.77132340780000
H         0.21267908040000   -1.83635728350000   -0.23449740000000
H        -3.43661937680000   -1.51599922750000   -0.66153088810000
H        -1.34007449750000   -3.22474948810000    0.76864151560000
H        -2.97397653090000   -3.75648683340000    0.14304956040000
$end

$rem
BASIS = 6-31G*
GUI = 2
METHOD = B3LYP
PRINT_ORBITALS false
MOLDEN_FORMAT false
--------------------------------------------------------------

             Standard Nuclear Orientation (Angstroms)
    I     Atom           X                Y                Z
 ----------------------------------------------------------------
    1      C       4.1533810449    -1.7680731952    -0.1858567068
    2      C       3.4635541278    -0.7287593470     0.2639598360
    3      C       2.0179254617    -0.5606086643     0.1031221335
    4      C       1.1790485080    -1.6734492272     0.1654404477
    5      C      -0.1925625903    -1.5401775061     0.0639931737
    6      C      -0.7278410822    -0.2770816736    -0.1001981935
    7      S      -2.5060553409    -0.0794352808    -0.1843718123
    8      C      -2.9838904896     0.0370007302     1.5680396068
    9      O      -2.8121063159     1.1760063071    -0.8151939549
   10      O      -3.0910229125    -1.2752460870    -0.7274748533
   11      C       0.0748934624     0.8394257342    -0.1738456035
   12      C       1.4598101969     0.7203105522    -0.0761347077
   13      C       2.3127701399     1.9014135080    -0.2096798914
   14      C       1.9696890178     3.1251483641     0.1694364569
   15      H       5.2159218549    -1.8488421969    -0.0334221721
   16      H       3.6894489502    -2.5654985583    -0.7419063746
   17      H       3.9738572090     0.0670967185     0.7902898822
   18      H       1.6137821464    -2.6498488206     0.3158215000
   19      H      -0.8526384399    -2.3923866633     0.0952980662
   20      H      -2.4873514364     0.8988287610     1.9940122193
   21      H      -2.6814445639    -0.8779462321     2.0601522195
   22      H      -4.0592553030     0.1558349079     1.6108494261
   23      H      -0.3909847941     1.7963749062    -0.3483068937
   24      H       3.2837832205     1.7309841693    -0.6551785355
   25      H       1.0231292907     3.3370179857     0.6374235605
   26      H       2.6330043628     3.9623721033     0.0366072548
 ----------------------------------------------------------------

    9    -974.9250381782      7.39e-06  Convergence criterion met
 Total energy in the final basis set =     -974.9250381782

                    Orbital Energies (a.u.)
 --------------------------------------------------------------

 Alpha MOs
 -- Occupied --
-89.0876 -19.1307 -19.1303 -10.2223 -10.2190 -10.2172 -10.2155 -10.2111
-10.2098 -10.2068 -10.2052 -10.2032 -10.1973 -10.1945  -8.1176  -6.0819
 -6.0811  -6.0807  -1.1102  -1.0007  -0.8921  -0.8230  -0.8075  -0.7751
 -0.7512  -0.7408  -0.6659  -0.6464  -0.6075  -0.5829  -0.5617  -0.5314
 -0.5035  -0.4922  -0.4770  -0.4708  -0.4620  -0.4574  -0.4467  -0.4403
 -0.4342  -0.4226  -0.4120  -0.3923  -0.3837  -0.3676  -0.3551  -0.3302
 -0.3148  -0.3122  -0.3082  -0.2941  -0.2854  -0.2587  -0.2405

          Ground-State Mulliken Net Atomic Charges

     Atom                 Charge (a.u.)
  ----------------------------------------
      1 C                    -0.332309
      2 C                    -0.135898
      3 C                     0.101793
      4 C                    -0.180259
      5 C                    -0.147991
      6 C                    -0.150701
      7 S                     1.073039
      8 C                    -0.625207
      9 O                    -0.521800
     10 O                    -0.522047
     11 C                    -0.216603
     12 C                     0.108597
     13 C                    -0.129530
     14 C                    -0.333032
     15 H                     0.152189
     16 H                     0.152972
     17 H                     0.148954
     18 H                     0.143495
     19 H                     0.173308
     20 H                     0.197249
     21 H                     0.197528
     22 H                     0.216727
     23 H                     0.179758
     24 H                     0.147633
     25 H                     0.150265
     26 H                     0.151870
  ----------------------------------------
  Sum of atomic charges =     0.000000

                    Cartesian Multipole Moments
 -----------------------------------------------------------------
    Charge (ESU x 10^10)
                 0.0000
    Dipole Moment (Debye)
         X       4.0638      Y      -0.1032      Z       3.6281
       Tot       5.4487
    Quadrupole Moments (Debye-Ang)
        XX     -89.5250     XY      -1.1152     YY     -84.6729
        XZ     -12.0662     YZ       0.8718     ZZ     -90.6038

 Total job time:  42.33s(wall), 41.68s(cpu)
        *  Thank you very much for using Q-Chem.  Have a nice day.  *
