 Q-Chem 5.2, Q-Chem, Inc., Pleasanton, CA (2019)
 Q-Chem 5.2.1 for Intel X86 EM64T Linux

User input:
--------------------------------------------------------------
$molecule
0 1
C        -2.89763744130000   -1.37692032620000    0.93971800410000
C        -2.55292997320000   -0.48297042420000    0.02385250900000
C        -1.21124850180000    0.09741791170000   -0.09582729630000
C        -1.13429874740000    1.48487826530000   -0.22499522040000
C         0.07270391530000    2.15875231390000   -0.19667965250000
C         0.13732349070000    3.65149770630000   -0.32389012330000
C         1.23418880160000    1.41860328860000   -0.02918087760000
C         1.21251491550000    0.03205244890000    0.05732105710000
C         2.43513999660000   -0.75384382870000    0.18722838400000
C         3.61508142610000   -0.30261795570000    0.59306492260000
C        -0.02532201490000   -0.64023119560000   -0.01062662430000
O         0.02993770980000   -2.01138737530000    0.01162046380000
C        -0.81670020810000   -2.74308279810000   -0.84583454960000
H        -3.90927279350000   -1.73548450040000    1.03081137600000
H        -2.18188854950000   -1.76883657230000    1.64377967400000
H        -3.30437865990000   -0.06398534060000   -0.63518315690000
H        -2.05665174590000    2.04147950750000   -0.31861669050000
H        -0.84232282850000    4.06595566030000   -0.54776476780000
H         0.82767057320000    3.93695729520000   -1.11626151620000
H         0.49532562550000    4.09426436930000    0.60525826470000
H         2.18308889560000    1.93201189580000   -0.00174916630000
H         2.32069333440000   -1.80156336860000   -0.05499348570000
H         3.77879844780000    0.72049831850000    0.88702114100000
H         4.46985859610000   -0.95382315280000    0.65929000060000
H        -0.22234684480000   -3.57346337030000   -1.23380196160000
H        -1.17314192010000   -2.13350783110000   -1.67920477180000
H        -1.68072955600000   -3.14269617780000   -0.30668941290000
$end

$rem
BASIS = 6-31G*
GUI = 2
METHOD = B3LYP
PRINT_ORBITALS false
MOLDEN_FORMAT false
--------------------------------------------------------------

             Standard Nuclear Orientation (Angstroms)
    I     Atom           X                Y                Z
 ----------------------------------------------------------------
    1      C       3.0381241272     0.9701538662    -0.9990409903
    2      C       2.1703146391     1.4157184961    -0.1017349534
    3      C       0.8031518283     0.9052945733     0.0452899245
    4      C      -0.2173815801     1.8533345172     0.1312182502
    5      C      -1.5531798682     1.4964969994     0.1226536895
    6      C      -2.6381301688     2.5285427126     0.2027254756
    7      C      -1.8725523353     0.1502381964     0.0201255322
    8      C      -0.8922619617    -0.8335253470    -0.0212948383
    9      C      -1.2236306435    -2.2532973039    -0.0826409787
   10      C      -2.3858116172    -2.7691228139    -0.4618892998
   11      C       0.4646522626    -0.4522187915     0.0257322927
   12      O       1.3791094646    -1.4753339042     0.0506588049
   13      C       2.4980167419    -1.3707494029     0.9018413015
   14      H       4.0139587316     1.4116858761    -1.1133592488
   15      H       2.7954406310     0.1578260636    -1.6644926541
   16      H       2.4197080335     2.2701220612     0.5166088997
   17      H       0.0578439481     2.8981781595     0.1743186926
   18      H      -2.2225816806     3.5174715602     0.3786270137
   19      H      -3.3309562569     2.2914443895     1.0087621325
   20      H      -3.2052085422     2.5528719866    -0.7275189967
   21      H      -2.9113281181    -0.1422821346     0.0087670862
   22      H      -0.4118498660    -2.9137725562     0.1898844649
   23      H      -3.2159576165    -2.1630186678    -0.7835658703
   24      H      -2.5466187302    -3.8335546569    -0.4768527232
   25      H       2.6498282268    -2.3609721282     1.3374084666
   26      H       2.3314592560    -0.6458173755     1.7017603106
   27      H       3.3955177217    -1.0827055554     0.3464695531
 ----------------------------------------------------------------

    8    -540.8716256407      8.42e-06  Convergence criterion met
 Total energy in the final basis set =     -540.8716256407

                    Orbital Energies (a.u.)
 --------------------------------------------------------------

 Alpha MOs
 -- Occupied --
-19.1686 -10.2402 -10.2289 -10.1904 -10.1900 -10.1870 -10.1855 -10.1808
-10.1783 -10.1783 -10.1779 -10.1774 -10.1702  -1.0574  -0.8614  -0.8024
 -0.7864  -0.7490  -0.7172  -0.7092  -0.6592  -0.6270  -0.6069  -0.5540
 -0.5400  -0.5194  -0.4959  -0.4734  -0.4562  -0.4503  -0.4398  -0.4359
 -0.4211  -0.4192  -0.4098  -0.3841  -0.3768  -0.3675  -0.3647  -0.3479
 -0.3382  -0.3267  -0.3015  -0.2877  -0.2640  -0.2182  -0.2074

          Ground-State Mulliken Net Atomic Charges

     Atom                 Charge (a.u.)
  ----------------------------------------
      1 C                    -0.335232
      2 C                    -0.148310
      3 C                     0.139237
      4 C                    -0.258077
      5 C                     0.195744
      6 C                    -0.529991
      7 C                    -0.257978
      8 C                     0.118769
      9 C                    -0.098204
     10 C                    -0.350345
     11 C                     0.217084
     12 O                    -0.518101
     13 C                    -0.205404
     14 H                     0.140878
     15 H                     0.159580
     16 H                     0.134258
     17 H                     0.118943
     18 H                     0.153253
     19 H                     0.160502
     20 H                     0.163189
     21 H                     0.120347
     22 H                     0.144877
     23 H                     0.137078
     24 H                     0.139710
     25 H                     0.152362
     26 H                     0.149607
     27 H                     0.156225
  ----------------------------------------
  Sum of atomic charges =     0.000000

                    Cartesian Multipole Moments
 -----------------------------------------------------------------
    Charge (ESU x 10^10)
                 0.0000
    Dipole Moment (Debye)
         X       0.6878      Y       0.8872      Z       0.8765
       Tot       1.4243
    Quadrupole Moments (Debye-Ang)
        XX     -68.6981     XY      -0.8962     YY     -74.0451
        XZ       2.1549     YZ      -0.2575     ZZ     -79.0022

 Total job time:  34.83s(wall), 34.72s(cpu)
        *  Thank you very much for using Q-Chem.  Have a nice day.  *
