 Q-Chem 5.2, Q-Chem, Inc., Pleasanton, CA (2019)
 Q-Chem 5.2.1 for Intel X86 EM64T Linux

User input:
--------------------------------------------------------------
$molecule
0 1
C        -4.04260183750000    0.39306845760000    0.12408417170000
C        -3.04932996680000   -0.48341963270000    0.02537053990000
C        -1.61876612640000   -0.21184982650000   -0.02282257190000
C        -0.73483077900000   -1.28601186380000   -0.09721260780000
C         0.64946891800000   -1.16459452520000   -0.15932387120000
C         1.44253131680000   -2.39025764900000   -0.33182744730000
C         1.21038664500000   -3.52295839160000    0.31485273550000
C         1.21413669030000    0.11987549170000   -0.11476145890000
O         2.52542421010000    0.46253146560000   -0.12080141040000
C         3.52277900900000   -0.43376539540000    0.31739952370000
C         0.33593682080000    1.20998067550000   -0.05020259600000
F         0.85826996740000    2.44974754920000   -0.01518991750000
C        -1.03813230870000    1.05961711400000   -0.01483442970000
F        -1.78308579850000    2.17750338330000    0.03811809690000
H        -5.06574729580000    0.05813395560000    0.15128825300000
H        -3.89244253530000    1.45542719480000    0.18117470510000
H        -3.28686576910000   -1.53929209960000   -0.02474943710000
H        -1.14910262810000   -2.28206622900000   -0.14232431510000
H         2.22888776720000   -2.34524579690000   -1.07240192290000
H         0.44538193030000   -3.60125334290000    1.06927690300000
H         1.79134495900000   -4.40916689530000    0.12705546860000
H         4.29384155010000    0.18421447460000    0.78033012610000
H         3.96567078820000   -0.97308211020000   -0.52382798800000
H         3.13852328420000   -1.14533760030000    1.05015952140000
$end

$rem
BASIS = 6-31G*
GUI = 2
METHOD = B3LYP
PRINT_ORBITALS false
MOLDEN_FORMAT false
--------------------------------------------------------------

             Standard Nuclear Orientation (Angstroms)
    I     Atom           X                Y                Z
 ----------------------------------------------------------------
    1      C       3.9662811584     0.9912909763     0.1167271959
    2      C       2.7263850776     1.4558598897     0.0099648609
    3      C       1.4862429920     0.6924924879    -0.0336637385
    4      C       0.2781165584     1.3809429790    -0.1183165581
    5      C      -0.9721871215     0.7742109874    -0.1774995679
    6      C      -2.1490444425     1.6355674819    -0.3619646882
    7      C      -2.3368903305     2.7833067903     0.2724687456
    8      C      -1.0429103958    -0.6265900908    -0.1187349209
    9      O      -2.1463989438    -1.4135061113    -0.1196055259
   10      C      -3.3985766700    -0.9263654665     0.3103126650
   11      C       0.1655555597    -1.3320811637    -0.0437379225
   12      F       0.1185124376    -2.6761405121     0.0049562008
   13      C       1.3960680944    -0.7022149473    -0.0115893312
   14      F       2.4899276323    -1.4812045757     0.0522530785
   15      H       4.8031830074     1.6686673647     0.1391846022
   16      H       4.2038559594    -0.0543116221     0.1851863195
   17      H       2.5727564447     2.5265675610    -0.0515596188
   18      H       0.3109276739     2.4586985932    -0.1744128700
   19      H      -2.8659492463     1.3060580034    -1.1010885572
   20      H      -1.6518202352     3.1364623781     1.0251162280
   21      H      -3.1946893166     3.4027748476     0.0760352617
   22      H      -3.9004662854    -1.7734992346     0.7806449918
   23      H      -4.0021774394    -0.5886369004    -0.5360234976
   24      H      -3.2946325220    -0.1171458538     1.0350773934
 ----------------------------------------------------------------

    9    -700.0121176222      2.73e-06  Convergence criterion met
 Total energy in the final basis set =     -700.0121176222

                    Orbital Energies (a.u.)
 --------------------------------------------------------------

 Alpha MOs
 -- Occupied --
-24.7159 -24.7059 -19.1875 -10.2783 -10.2730 -10.2643 -10.2454 -10.2068
-10.2048 -10.2030 -10.1976 -10.1937 -10.1893 -10.1768  -1.2317  -1.2140
 -1.0776  -0.8792  -0.8117  -0.7948  -0.7514  -0.7373  -0.7041  -0.6404
 -0.6269  -0.5990  -0.5668  -0.5543  -0.5360  -0.5193  -0.5014  -0.4890
 -0.4719  -0.4690  -0.4574  -0.4516  -0.4416  -0.4411  -0.4230  -0.4065
 -0.3930  -0.3851  -0.3772  -0.3605  -0.3525  -0.3405  -0.3328  -0.2965
 -0.2704  -0.2360  -0.2122

          Ground-State Mulliken Net Atomic Charges

     Atom                 Charge (a.u.)
  ----------------------------------------
      1 C                    -0.360963
      2 C                    -0.110431
      3 C                     0.134560
      4 C                    -0.291131
      5 C                     0.130839
      6 C                    -0.140965
      7 C                    -0.336140
      8 C                     0.226448
      9 O                    -0.502472
     10 C                    -0.220909
     11 C                     0.278077
     12 F                    -0.279516
     13 C                     0.241721
     14 F                    -0.277453
     15 H                     0.139713
     16 H                     0.161470
     17 H                     0.129574
     18 H                     0.139935
     19 H                     0.146195
     20 H                     0.149246
     21 H                     0.146294
     22 H                     0.170253
     23 H                     0.154199
     24 H                     0.171457
  ----------------------------------------
  Sum of atomic charges =     0.000000

                    Cartesian Multipole Moments
 -----------------------------------------------------------------
    Charge (ESU x 10^10)
                 0.0000
    Dipole Moment (Debye)
         X      -2.3766      Y       2.4595      Z       0.3730
       Tot       3.4404
    Quadrupole Moments (Debye-Ang)
        XX     -69.0044     XY       1.0371     YY     -80.4481
        XZ      -0.3857     YZ      -0.1663     ZZ     -80.5565

 Total job time:  39.65s(wall), 39.52s(cpu)
        *  Thank you very much for using Q-Chem.  Have a nice day.  *
