 Q-Chem 5.2, Q-Chem, Inc., Pleasanton, CA (2019)
 Q-Chem 5.2.1 for Intel X86 EM64T Linux

User input:
--------------------------------------------------------------
$molecule
0 1
C         3.93866183220000    0.60775508950000    0.40545254920000
C         3.19478527510000   -0.34759257990000   -0.13917024240000
C         1.75127732390000   -0.40361181850000   -0.14100702690000
N         1.13185627360000   -1.60082721730000   -0.29729297170000
N        -0.19658761890000   -1.52757995700000   -0.19771045200000
C        -0.46323599710000   -0.24889608970000    0.01900507550000
N        -1.72945017050000    0.27231722830000    0.15714667210000
C        -2.95837338560000   -0.33623049830000    0.12894732120000
C        -2.96508035060000   -1.81949138460000   -0.08702648710000
O        -3.95263957310000    0.34032697030000    0.27736897240000
C         0.73125310690000    0.52684350160000    0.06187149870000
C         0.76940211890000    1.96892857890000    0.21800598510000
C         1.60199022100000    2.78682818540000   -0.41170335820000
H         5.01326410640000    0.55695188020000    0.38535664480000
H         3.50085976460000    1.46094337830000    0.89252313970000
H         3.67255655580000   -1.20750311950000   -0.59531417050000
H         1.56835067180000   -2.49874259390000   -0.42955162690000
H        -1.76739962860000    1.27514277900000    0.29602794560000
H        -2.48413543130000   -2.05579009630000   -1.03231034400000
H        -3.99169196300000   -2.17408295470000   -0.08662246930000
H        -2.39589788320000   -2.30918566690000    0.69844070220000
H         0.01471227560000    2.38083307910000    0.87946874540000
H         2.34605233480000    2.42051026120000   -1.09832565930000
H         1.56168082380000    3.85237363790000   -0.26546320620000
$end

$rem
BASIS = 6-31G*
GUI = 2
METHOD = B3LYP
PRINT_ORBITALS false
MOLDEN_FORMAT false
--------------------------------------------------------------

             Standard Nuclear Orientation (Angstroms)
    I     Atom           X                Y                Z
 ----------------------------------------------------------------
    1      C       3.9323899513     0.2225594941    -0.4853631316
    2      C       3.0094706607     1.0301357082     0.0232586612
    3      C       1.5878338471     0.7768826216     0.0641044494
    4      N       0.7283116960     1.8218775099     0.1672538582
    5      N      -0.5548153370     1.4606478952     0.1111896330
    6      C      -0.5440365410     0.1433051740    -0.0214428754
    7      N      -1.6707984135    -0.6438280088    -0.0912554226
    8      C      -3.0011331544    -0.3109658995    -0.0631466894
    9      C      -3.3228019733     1.1474418136     0.0646368746
   10      O      -3.8291288979    -1.1921763492    -0.1419847425
   11      C       0.7883463721    -0.3608343435    -0.0532671270
   12      C       1.1328300791    -1.7685524634    -0.1247049722
   13      C       2.1315824601    -2.3478413108     0.5276865389
   14      H       4.9711850253     0.5026490565    -0.4998369126
   15      H       3.6803364027    -0.7338506569    -0.9079590361
   16      H       3.2986186730     1.9996420106     0.4134250009
   17      H       0.9638251226     2.7988401635     0.2332018260
   18      H      -1.4946929524    -1.6384566166    -0.1692814040
   19      H      -2.8888218313     1.5410807581     0.9797413957
   20      H      -4.4014859485     1.2740599969     0.0733239231
   21      H      -2.8846716853     1.6958559160    -0.7648278322
   22      H       0.4737690224    -2.3735732673    -0.7381733174
   23      H       2.7904570255    -1.7879140170     1.1692729851
   24      H       2.3187365007    -3.4045890907     0.4461044605
 ----------------------------------------------------------------

    9    -589.0076404225      6.01e-06  Convergence criterion met
 Total energy in the final basis set =     -589.0076404225

                    Orbital Energies (a.u.)
 --------------------------------------------------------------

 Alpha MOs
 -- Occupied --
-19.1070 -14.4173 -14.3699 -14.3499 -10.2842 -10.2540 -10.2387 -10.2125
-10.2030 -10.1952 -10.1948 -10.1854 -10.1717  -1.0650  -1.0362  -0.9417
 -0.8426  -0.8205  -0.7797  -0.7511  -0.7346  -0.6572  -0.6428  -0.6079
 -0.5770  -0.5545  -0.5321  -0.5029  -0.4836  -0.4659  -0.4612  -0.4481
 -0.4445  -0.4362  -0.4214  -0.4002  -0.3920  -0.3789  -0.3736  -0.3682
 -0.3281  -0.3156  -0.2996  -0.2844  -0.2463  -0.2222  -0.2155

          Ground-State Mulliken Net Atomic Charges

     Atom                 Charge (a.u.)
  ----------------------------------------
      1 C                    -0.342086
      2 C                    -0.117968
      3 C                     0.359135
      4 N                    -0.482438
      5 N                    -0.379719
      6 C                     0.532648
      7 N                    -0.683950
      8 C                     0.557817
      9 C                    -0.513021
     10 O                    -0.491600
     11 C                    -0.048025
     12 C                    -0.151468
     13 C                    -0.336850
     14 H                     0.149287
     15 H                     0.167325
     16 H                     0.129931
     17 H                     0.343738
     18 H                     0.336950
     19 H                     0.184848
     20 H                     0.169855
     21 H                     0.183656
     22 H                     0.132163
     23 H                     0.154791
     24 H                     0.144979
  ----------------------------------------
  Sum of atomic charges =     0.000000

                    Cartesian Multipole Moments
 -----------------------------------------------------------------
    Charge (ESU x 10^10)
                 0.0000
    Dipole Moment (Debye)
         X       4.8981      Y       2.1043      Z       0.1360
       Tot       5.3327
    Quadrupole Moments (Debye-Ang)
        XX     -84.2152     XY      -3.7961     YY     -67.2834
        XZ       0.1425     YZ       1.6938     ZZ     -77.0877

 Total job time:  32.51s(wall), 32.41s(cpu)
        *  Thank you very much for using Q-Chem.  Have a nice day.  *
