 Q-Chem 5.4, Q-Chem, Inc., Pleasanton, CA (2021)
 Q-Chem 5.4.2 for Intel X86 EM64T Linux

User input:
--------------------------------------------------------------
$molecule
0 1
C           -3.94669784690000        1.32403533000000        0.50685835980000
C           -3.45083759530000        0.38997326870000       -0.29068060730000
C           -2.11752155530000       -0.21369880790000       -0.17188894530000
C           -2.05029883530000       -1.60552259970000       -0.24046630510000
C           -0.85012236640000       -2.26880345630000       -0.08682900100000
C            0.30763078880000       -1.54644729030000        0.12875446870000
C            0.27179590970000       -0.15478968100000        0.16741383790000
C            1.49647428030000        0.60605322620000        0.41334245550000
C            2.71805466660000        0.25848359390000        0.04553057210000
F            3.08087691800000       -0.81143688510000       -0.65319903700000
F            3.80324503290000        0.98377307950000        0.31954914260000
C           -0.94479827710000        0.52678045740000        0.00587812410000
C           -0.94910365140000        2.02658866300000       -0.04756262680000
H           -4.95227042880000        1.69122769230000        0.38843093840000
H           -3.38042819600000        1.73996642520000        1.32281425750000
H           -4.07556767600000       -0.03848773050000       -1.06541719240000
H           -2.96076110280000       -2.16552834740000       -0.39866061870000
H           -0.81482934450000       -3.34682889660000       -0.12951297730000
H            1.24219371280000       -2.06416651460000        0.27480618270000
H            1.41633229470000        1.53871592070000        0.95031465820000
H           -0.11884161350000        2.38516238420000       -0.65328576310000
H           -0.84848127600000        2.45198272290000        0.95144191890000
H           -1.87557636690000        2.39302074990000       -0.48022467830000
$end

$rem
BASIS = 6-31G*
GUI = 2
METHOD = B3LYP
PRINT_ORBITALS false
MOLDEN_FORMAT false
$end
--------------------------------------------------------------

             Standard Nuclear Orientation (Angstroms)
    I     Atom           X                Y                Z
 ----------------------------------------------------------------
    1      C       3.8682834807    -1.2210156690     0.3343109854
    2      C       3.3380720686    -0.2110889655    -0.3389955121
    3      C       1.9852414345     0.3264166229    -0.1461221975
    4      C       1.8701161183     1.7125714511    -0.0378809413
    5      C       0.6484170172     2.3093398598     0.1972535847
    6      C      -0.4831753691     1.5260728858     0.3183260840
    7      C      -0.3995233338     0.1427916626     0.1803950093
    8      C      -1.5965819905    -0.6847763984     0.3266195032
    9      C      -2.8305629463    -0.3356790005     0.0044846271
   10      F      -3.2321481640     0.8009954984    -0.5534520006
   11      F      -3.8893429053    -1.1267572932     0.1832282407
   12      C       0.8391848028    -0.4705422437    -0.0648736750
   13      C       0.8947310463    -1.9504585886    -0.3078990455
   14      H       4.8854588713    -1.5354157394     0.1714051137
   15      H       3.3192921727    -1.7561892687     1.0903809441
   16      H       3.9451950714     0.3332978249    -1.0525275435
   17      H       2.7603190002     2.3191109522    -0.1228637712
   18      H       0.5760457884     3.3822305701     0.2914570774
   19      H      -1.4344530397     1.9886431988     0.5277817027
   20      H      -1.4827468760    -1.6746236494     0.7411862319
   21      H       0.0752633565    -2.2577914868    -0.9550697170
   22      H       0.8120370113    -2.5021684206     0.6290497305
   23      H       1.8317942949    -2.2270275260    -0.7824964629
 ----------------------------------------------------------------

    9    -624.8229901461      5.19e-06  Convergence criterion met
 Total energy in the final basis set =     -624.8229901461

                    Orbital Energies (a.u.)
 --------------------------------------------------------------

 Alpha MOs
 -- Occupied --
-24.7396 -24.7319 -10.3542 -10.1995 -10.1988 -10.1958 -10.1925 -10.1912
-10.1844 -10.1841 -10.1834 -10.1818 -10.1771  -1.2815  -1.2210  -0.8715
 -0.8131  -0.7878  -0.7617  -0.7252  -0.6883  -0.6415  -0.6171  -0.5934
 -0.5693  -0.5608  -0.5173  -0.5127  -0.4955  -0.4797  -0.4555  -0.4436
 -0.4378  -0.4298  -0.4259  -0.4215  -0.4113  -0.4033  -0.3890  -0.3759
 -0.3593  -0.3403  -0.3339  -0.2958  -0.2758  -0.2323  -0.2201

          Ground-State Mulliken Net Atomic Charges

     Atom                 Charge (a.u.)
  ----------------------------------------
      1 C                    -0.327639
      2 C                    -0.147982
      3 C                     0.088052
      4 C                    -0.174688
      5 C                    -0.133549
      6 C                    -0.179679
      7 C                     0.119412
      8 C                    -0.317049
      9 C                     0.553283
     10 F                    -0.236188
     11 F                    -0.249689
     12 C                     0.074063
     13 C                    -0.542287
     14 H                     0.143731
     15 H                     0.148707
     16 H                     0.137752
     17 H                     0.125338
     18 H                     0.128815
     19 H                     0.133001
     20 H                     0.165316
     21 H                     0.162396
     22 H                     0.156562
     23 H                     0.172322
  ----------------------------------------
  Sum of atomic charges =     0.000000

                    Cartesian Multipole Moments
 -----------------------------------------------------------------
    Charge (ESU x 10^10)
                 0.0000
    Dipole Moment (Debye)
         X       1.2463      Y      -0.3319      Z       0.2056
       Tot       1.3060
    Quadrupole Moments (Debye-Ang)
        XX     -73.7768     XY      -0.6134     YY     -69.1601
        XZ      -1.8472     YZ      -0.7716     ZZ     -75.4007

 Total job time:  51.32s(wall), 50.15s(cpu)
        *  Thank you very much for using Q-Chem.  Have a nice day.  *
