 Q-Chem 5.2, Q-Chem, Inc., Pleasanton, CA (2019)
 Q-Chem 5.2.1 for Intel X86 EM64T Linux

User input:
--------------------------------------------------------------
$molecule
0 1
C         3.88618915440000    1.09555758770000    0.07351416540000
C         3.21250054640000   -0.04636509430000    0.15030052120000
C         1.77327281820000   -0.22508436070000    0.01658484890000
C         1.24036881570000   -1.51350527400000    0.08247929750000
C        -0.11542617840000   -1.72131915060000   -0.04118091740000
C        -0.99946832280000   -0.65935541370000   -0.23321576640000
C        -2.43110636610000   -0.91973207020000   -0.36704279990000
C        -3.08507536420000   -1.88924733370000    0.25919620660000
C        -0.47776779610000    0.64172295640000   -0.30819459050000
C        -1.37332310800000    1.84046853840000   -0.45943576490000
C        -2.12238007910000    2.13429936640000    0.84138469140000
C         0.88694225510000    0.83349838260000   -0.17765463710000
H         4.95655706870000    1.12213147340000    0.18623914090000
H         3.40999678730000    2.04435843870000   -0.10445082170000
H         3.76119800580000   -0.96395667740000    0.32788012140000
H         1.90141234580000   -2.35677567530000    0.22649779410000
H        -0.50558623060000   -2.72793267250000   -0.00927902020000
H        -2.97732498030000   -0.25793235760000   -1.02686259850000
H        -2.59852018050000   -2.55293992020000    0.95440243380000
H        -4.14102206680000   -2.04369878610000    0.11499124650000
H        -2.09482309170000    1.67858750520000   -1.26349252360000
H        -0.76963592760000    2.70982928580000   -0.72834451930000
H        -2.74467765730000    1.28777075340000    1.12260829570000
H        -2.75662328470000    3.01050942510000    0.72569238320000
H        -1.41561696170000    2.32145348210000    1.64700861000000
H         1.27076847600000    1.84166455240000   -0.22728794770000
$end

$rem
BASIS = 6-31G*
GUI = 2
METHOD = B3LYP
PRINT_ORBITALS false
MOLDEN_FORMAT false
--------------------------------------------------------------

             Standard Nuclear Orientation (Angstroms)
    I     Atom           X                Y                Z
 ----------------------------------------------------------------
    1      C       4.0063217797    -0.6326383765    -0.0612510044
    2      C       3.2114053738     0.4267582016    -0.1588557922
    3      C       1.7617004373     0.4498597369    -0.0209470291
    4      C       1.0907156792     1.6704811502    -0.1116113760
    5      C      -0.2792766999     1.7314012880     0.0151487916
    6      C      -1.0411008347     0.5835916998     0.2349942183
    7      C      -2.4922024687     0.6886733072     0.3712112096
    8      C      -3.2504094681     1.5667842839    -0.2721035255
    9      C      -0.3798369524    -0.6506334863     0.3350764684
   10      C      -1.1382594141    -1.9365293117     0.5171519361
   11      C      -1.8548244001    -2.3391462363    -0.7728058127
   12      C       0.9972385527    -0.6947917261     0.2010424411
   13      H       5.0727950968    -0.5444348101    -0.1793838033
   14      H       3.6374569763    -1.6236840416     0.1397987623
   15      H       3.6557574406     1.3947299760    -0.3592544306
   16      H       1.6549835925     2.5776262957    -0.2774855840
   17      H      -0.7774105920     2.6883409091    -0.0362571129
   18      H      -2.9605456733    -0.0142024659     1.0482016755
   19      H      -2.8416918541     2.2642339531    -0.9841775143
   20      H      -4.3164489319     1.6079311160    -0.1253364983
   21      H      -1.8705535561    -1.8368652968     1.3215693279
   22      H      -0.4421486735    -2.7284893014     0.8013480844
   23      H      -2.5669731960    -1.5721831811    -1.0687170300
   24      H      -2.3889377569    -3.2767178093    -0.6346910464
   25      H      -1.1344162128    -2.4655722012    -1.5781623700
   26      H       1.4893038326    -1.6535763265     0.2702443888
 ----------------------------------------------------------------

    8    -465.6737029272      5.25e-06  Convergence criterion met
 Total energy in the final basis set =     -465.6737029272

                    Orbital Energies (a.u.)
 --------------------------------------------------------------

 Alpha MOs
 -- Occupied --
-10.1903 -10.1900 -10.1895 -10.1889 -10.1874 -10.1843 -10.1822 -10.1814
-10.1800 -10.1792 -10.1772 -10.1706  -0.8674  -0.8096  -0.7847  -0.7637
 -0.7247  -0.7102  -0.6357  -0.6317  -0.5824  -0.5735  -0.5429  -0.4985
 -0.4900  -0.4555  -0.4472  -0.4426  -0.4279  -0.4207  -0.4056  -0.3949
 -0.3831  -0.3676  -0.3592  -0.3542  -0.3513  -0.3341  -0.3216  -0.3069
 -0.2658  -0.2430  -0.2095

          Ground-State Mulliken Net Atomic Charges

     Atom                 Charge (a.u.)
  ----------------------------------------
      1 C                    -0.352351
      2 C                    -0.117577
      3 C                     0.195753
      4 C                    -0.203416
      5 C                    -0.182863
      6 C                     0.105811
      7 C                    -0.131239
      8 C                    -0.341171
      9 C                     0.132122
     10 C                    -0.345091
     11 C                    -0.442564
     12 C                    -0.263798
     13 H                     0.143045
     14 H                     0.142202
     15 H                     0.125682
     16 H                     0.125007
     17 H                     0.128061
     18 H                     0.134901
     19 H                     0.144817
     20 H                     0.142083
     21 H                     0.144711
     22 H                     0.142395
     23 H                     0.160955
     24 H                     0.142207
     25 H                     0.151067
     26 H                     0.119253
  ----------------------------------------
  Sum of atomic charges =     0.000000

                    Cartesian Multipole Moments
 -----------------------------------------------------------------
    Charge (ESU x 10^10)
                 0.0000
    Dipole Moment (Debye)
         X      -0.2916      Y      -0.2018      Z       0.0358
       Tot       0.3564
    Quadrupole Moments (Debye-Ang)
        XX     -67.2397     XY       0.0758     YY     -67.0355
        XZ      -1.2674     YZ      -2.3846     ZZ     -75.6307

 Total job time:  29.17s(wall), 29.07s(cpu)
        *  Thank you very much for using Q-Chem.  Have a nice day.  *
