 Q-Chem 5.2, Q-Chem, Inc., Pleasanton, CA (2019)
 Q-Chem 5.2.1 for Intel X86 EM64T Linux

User input:
--------------------------------------------------------------
$molecule
0 1
C         0.60888088590000   -3.28384195330000   -0.48880868380000
C        -0.05606524450000   -2.65532471650000    0.46559582100000
C        -0.83912609150000   -1.42259440170000    0.26751993420000
C        -2.20779339200000   -1.46971173520000    0.51279157720000
C        -3.00954013750000   -0.35897933500000    0.32719946140000
C        -2.45071484180000    0.82831504730000   -0.11127365510000
C        -1.08812813270000    0.88122203870000   -0.32880762290000
F        -0.56471669210000    2.03430464380000   -0.78971056300000
C        -0.24841964090000   -0.21606786940000   -0.13567897320000
C         1.19892129630000   -0.10495379970000   -0.32497796800000
C         1.93771648670000    0.91789283740000    0.07264555660000
F         1.53997235760000    1.98587809980000    0.74349029000000
F         3.25377050030000    0.98066388650000   -0.11267824060000
H         1.13578645720000   -4.20349554320000   -0.30074742030000
H         0.63604877330000   -2.91593191560000   -1.50170002000000
H        -0.10394278830000   -3.07395692830000    1.46331171520000
H        -2.64447948130000   -2.40105086230000    0.84152632690000
H        -4.07005296430000   -0.41738795170000    0.51652636990000
H        -3.04791079340000    1.70896315420000   -0.28463878860000
H         1.71910878250000   -0.92437825580000   -0.79228603070000
$end

$rem
BASIS = 6-31G*
GUI = 2
METHOD = B3LYP
PRINT_ORBITALS false
MOLDEN_FORMAT false
--------------------------------------------------------------

             Standard Nuclear Orientation (Angstroms)
    I     Atom           X                Y                Z
 ----------------------------------------------------------------
    1      C       1.1687797967     3.0284827266    -0.5828394677
    2      C       1.4183355637     2.1540522960     0.3769358045
    3      C       1.3930330665     0.6907669245     0.2031598534
    4      C       2.5735136690    -0.0143452837     0.4150813540
    5      C       2.6309392850    -1.3855294463     0.2491746543
    6      C       1.4982921788    -2.0807975867    -0.1354356434
    7      C       0.3207928164    -1.3834117892    -0.3195850872
    8      F      -0.7643876774    -2.0697695302    -0.7285922969
    9      C       0.2245432954    -0.0025985398    -0.1448138963
   10      C      -1.0545973566     0.6928674912    -0.2968087201
   11      C      -2.2163016039     0.2470928359     0.1524865527
   12      F      -2.4411061631    -0.8536244356     0.8501325715
   13      F      -3.3590203200     0.9112912706    -0.0002146468
   14      H       1.2371253973     4.0894583470    -0.4142605330
   15      H       0.9066687548     2.7191196130    -1.5816572762
   16      H       1.7248982358     2.4943038013     1.3583788414
   17      H       3.4600120360     0.5317061754     0.7016163348
   18      H       3.5575661921    -1.9135663327     0.4119116266
   19      H       1.5106292859    -3.1473273694    -0.2922845540
   20      H      -1.0602567229     1.6557522503    -0.7797675152
 ----------------------------------------------------------------

    9    -684.7375265519      3.92e-06  Convergence criterion met
 Total energy in the final basis set =     -684.7375265519

                    Orbital Energies (a.u.)
 --------------------------------------------------------------

 Alpha MOs
 -- Occupied --
-24.7352 -24.7306 -24.7054 -10.3535 -10.2723 -10.2120 -10.2070 -10.1997
-10.1984 -10.1979 -10.1948 -10.1915 -10.1896  -1.2805  -1.2213  -1.2166
 -0.8790  -0.8108  -0.7977  -0.7420  -0.7362  -0.6499  -0.6303  -0.6094
 -0.5810  -0.5650  -0.5462  -0.5156  -0.5123  -0.4966  -0.4773  -0.4731
 -0.4598  -0.4429  -0.4371  -0.4318  -0.4297  -0.4093  -0.4005  -0.3888
 -0.3718  -0.3612  -0.3418  -0.2955  -0.2785  -0.2426  -0.2283

          Ground-State Mulliken Net Atomic Charges

     Atom                 Charge (a.u.)
  ----------------------------------------
      1 C                    -0.324230
      2 C                    -0.140162
      3 C                     0.073591
      4 C                    -0.177084
      5 C                    -0.124268
      6 C                    -0.195119
      7 C                     0.324212
      8 F                    -0.291638
      9 C                     0.039888
     10 C                    -0.313377
     11 C                     0.571367
     12 F                    -0.231167
     13 F                    -0.247680
     14 H                     0.149094
     15 H                     0.150949
     16 H                     0.149055
     17 H                     0.131919
     18 H                     0.138297
     19 H                     0.145806
     20 H                     0.170549
  ----------------------------------------
  Sum of atomic charges =     0.000000

                    Cartesian Multipole Moments
 -----------------------------------------------------------------
    Charge (ESU x 10^10)
                 0.0000
    Dipole Moment (Debye)
         X       2.1106      Y       1.0208      Z       0.1323
       Tot       2.3482
    Quadrupole Moments (Debye-Ang)
        XX     -71.0679     XY      -2.0053     YY     -66.2112
        XZ       2.0705     YZ      -0.3976     ZZ     -71.6192

 Total job time:  28.35s(wall), 28.26s(cpu)
        *  Thank you very much for using Q-Chem.  Have a nice day.  *
