 Q-Chem 5.2, Q-Chem, Inc., Pleasanton, CA (2019)
 Q-Chem 5.2.1 for Intel X86 EM64T Linux

User input:
--------------------------------------------------------------
$molecule
0 1
F        -5.42014001190000   -1.18686837080000   -1.23661614010000
C        -4.22087768580000   -0.79348507700000   -0.81302648950000
F        -3.30259427320000   -1.62129278380000   -1.29461057840000
C        -4.04063312770000    0.26012549520000   -0.03058010950000
C        -2.79315209150000    0.78553206670000    0.50353004490000
C        -1.54172122940000    0.30243758260000    0.12695312560000
C        -0.38403874640000    0.83791454290000    0.67992644910000
N         0.86525049850000    0.33550992930000    0.30097112720000
C         1.22490474810000   -0.99950246050000    0.26650554760000
C         2.57054102850000   -1.10870174800000   -0.15150873080000
C         3.17062200130000   -2.35741019160000   -0.24605287160000
C         2.42894684210000   -3.47390057800000    0.08374980880000
C         1.11071979020000   -3.35478277110000    0.51768894140000
C         0.49239563510000   -2.12322873770000    0.62019138400000
C         1.95441474390000    1.08997108360000   -0.09296104400000
C         3.03633465590000    0.22941652150000   -0.38736002230000
C         4.24441494250000    0.75581890460000   -0.82488086290000
C         4.35529731210000    2.12395915400000   -0.97227478320000
C         3.27554556570000    2.96231092980000   -0.70511951880000
C         2.06367795730000    2.46182964880000   -0.26833141980000
C        -0.46982955940000    1.87153987180000    1.61035345210000
C        -1.70986175930000    2.36571952940000    1.97101066280000
C        -2.86212643720000    1.83098841280000    1.42760239750000
H        -4.94348601350000    0.78187593100000    0.25221452060000
H        -1.44931928420000   -0.47732840780000   -0.61083773400000
H         4.19737320480000   -2.44699466320000   -0.56729230840000
H         2.87512852120000   -4.45476859420000    0.01434015980000
H         0.55927954260000   -4.24463129550000    0.78273276660000
H        -0.52435398760000   -2.04346907330000    0.97365699130000
H         5.07511636860000    0.10381158550000   -1.04889478090000
H         5.28665495700000    2.55422485950000   -1.30911181840000
H         3.38603121640000    4.02740380290000   -0.84629209440000
H         1.22767729480000    3.11972619850000   -0.08382670890000
H         0.43078377100000    2.26867384520000    2.05277317180000
H        -1.77733165060000    3.16849687720000    2.68983822210000
H        -3.82580958770000    2.21905167880000    1.72112256380000
$end

$rem
BASIS = 6-31G*
GUI = 2
METHOD = B3LYP
PRINT_ORBITALS false
MOLDEN_FORMAT false
--------------------------------------------------------------

             Standard Nuclear Orientation (Angstroms)
    I     Atom           X                Y                Z
 ----------------------------------------------------------------
    1      F       5.5230747046    -0.9698922985     1.2778412447
    2      C       4.3083418085    -0.6099103424     0.8688843799
    3      F       3.4447400970    -1.5617608322     1.1984386077
    4      C       4.0674026394     0.5266555524     0.2325103079
    5      C       2.7972548756     1.0289248199    -0.2694706670
    6      C       1.5776476262     0.4077951151    -0.0086532859
    7      C       0.3967078663     0.9292075664    -0.5246514854
    8      N      -0.8193312334     0.2888335258    -0.2640538159
    9      C      -1.0752946432    -1.0605839232    -0.4263880925
   10      C      -2.4188218706    -1.3251693989    -0.0766359866
   11      C      -2.9226505566    -2.6153286205    -0.1764076448
   12      C      -2.0884375242    -3.6175704555    -0.6291797215
   13      C      -0.7725830013    -3.3429692111    -0.9943314903
   14      C      -0.2490372146    -2.0673046332    -0.9041287035
   15      C      -1.9735004078     0.8992166096     0.1898172563
   16      C      -2.9928009163    -0.0707819170     0.3236266004
   17      C      -4.2489586157     0.2996136780     0.7849907422
   18      C      -4.4692424791     1.6219463482     1.1147466193
   19      C      -3.4510901507     2.5660553655     1.0047763103
   20      C      -2.1931841175     2.2214311236     0.5478353954
   21      C       0.4263013394     2.0861561690    -1.3005573750
   22      C       1.6332766451     2.7151752631    -1.5445094299
   23      C       2.8090070361     2.1954395673    -1.0380741901
   24      H       4.9341702946     1.1473780328     0.0571333204
   25      H       1.5268027852    -0.4720412345     0.6111944953
   26      H      -3.9473667715    -2.8237171822     0.0918628781
   27      H      -2.4589706453    -4.6284791517    -0.7114394899
   28      H      -0.1472002648    -4.1443553919    -1.3588058988
   29      H       0.7673075379    -1.8648470334    -1.2060121233
   30      H      -5.0322040910    -0.4362511270     0.8869228425
   31      H      -5.4395455712     1.9316994671     1.4733267959
   32      H      -3.6473492554     3.5900291437     1.2867686307
   33      H      -1.4061379509     2.9579793932     0.4860135183
   34      H      -0.4905822232     2.4743013361    -1.7167578482
   35      H       1.6569988502     3.6132636452    -2.1433343052
   36      H       3.7470326907     2.6900915398    -1.2402120103
 ----------------------------------------------------------------

    9   -1024.3863697325      4.10e-06  Convergence criterion met
 Total energy in the final basis set =    -1024.3863697325

                    Orbital Energies (a.u.)
 --------------------------------------------------------------

 Alpha MOs
 -- Occupied --
-24.7507 -24.7401 -14.3818 -10.3639 -10.2389 -10.2198 -10.2196 -10.2166
-10.2095 -10.2001 -10.1975 -10.1973 -10.1965 -10.1838 -10.1835 -10.1832
-10.1832 -10.1826 -10.1824 -10.1822 -10.1818 -10.1766 -10.1761  -1.2919
 -1.2307  -1.0013  -0.8822  -0.8504  -0.8468  -0.8147  -0.7877  -0.7592
 -0.7543  -0.7457  -0.7181  -0.7159  -0.6554  -0.6516  -0.6252  -0.6181
 -0.6026  -0.5877  -0.5737  -0.5705  -0.5459  -0.5254  -0.5228  -0.5168
 -0.5111  -0.4941  -0.4758  -0.4580  -0.4539  -0.4470  -0.4453  -0.4450
 -0.4416  -0.4348  -0.4298  -0.4215  -0.4198  -0.4134  -0.4103  -0.3875
 -0.3793  -0.3662  -0.3617  -0.3591  -0.3524  -0.3384  -0.3329  -0.3307
 -0.3059  -0.2790  -0.2638  -0.2511  -0.2318  -0.2109  -0.1966

          Ground-State Mulliken Net Atomic Charges

     Atom                 Charge (a.u.)
  ----------------------------------------
      1 F                    -0.245639
      2 C                     0.551810
      3 F                    -0.231205
      4 C                    -0.303884
      5 C                     0.187959
      6 C                    -0.237507
      7 C                     0.292661
      8 N                    -0.735701
      9 C                     0.311774
     10 C                     0.060651
     11 C                    -0.195071
     12 C                    -0.145322
     13 C                    -0.138558
     14 C                    -0.174712
     15 C                     0.312698
     16 C                     0.059904
     17 C                    -0.195041
     18 C                    -0.145380
     19 C                    -0.138791
     20 C                    -0.176983
     21 C                    -0.159728
     22 C                    -0.141090
     23 C                    -0.187745
     24 H                     0.162833
     25 H                     0.161595
     26 H                     0.128599
     27 H                     0.121648
     28 H                     0.125337
     29 H                     0.139334
     30 H                     0.128824
     31 H                     0.121592
     32 H                     0.124627
     33 H                     0.138395
     34 H                     0.152944
     35 H                     0.138162
     36 H                     0.131011
  ----------------------------------------
  Sum of atomic charges =     0.000000

                    Cartesian Multipole Moments
 -----------------------------------------------------------------
    Charge (ESU x 10^10)
                 0.0000
    Dipole Moment (Debye)
         X       1.0842      Y       1.4643      Z      -0.7536
       Tot       1.9717
    Quadrupole Moments (Debye-Ang)
        XX    -120.8781     XY       5.1692     YY    -118.8804
        XZ      -4.9061     YZ      -1.1342     ZZ    -131.6269

 Total job time:  118.54s(wall), 117.34s(cpu)
        *  Thank you very much for using Q-Chem.  Have a nice day.  *
