 Q-Chem 5.2, Q-Chem, Inc., Pleasanton, CA (2019)
 Q-Chem 5.2.1 for Intel X86 EM64T Linux

User input:
--------------------------------------------------------------
$molecule
0 1
C        -1.92468011940000    2.52739295390000   -0.35917976930000
C        -2.39326625770000    1.39423372040000    0.14860014490000
C        -1.73686805970000    0.10440027000000    0.09552923760000
C        -2.40674238890000   -1.14990101610000    0.05001936340000
C        -1.43836269200000   -2.10050881120000   -0.02129131550000
O        -0.21982972030000   -1.54402128540000   -0.00823098200000
C        -0.38544479150000   -0.20324992970000    0.06421583060000
C         0.76360575900000    0.65034685140000    0.17619472710000
C         2.02518712640000    0.25833296280000    0.03312013720000
F         2.45265526050000   -0.95687177670000   -0.27363067810000
F         3.06649331900000    1.07611970650000    0.17087309540000
H        -2.48232220330000    3.44508724770000   -0.28554356220000
H        -0.98907796670000    2.57788309570000   -0.88888307320000
H        -3.36915124140000    1.37968666390000    0.61757721470000
H        -3.46611869650000   -1.30469999280000    0.05436479560000
H        -1.48661692030000   -3.16980582050000   -0.08040777730000
H         0.58530074780000    1.68444802300000    0.41954372500000
$end

$rem
BASIS = 6-31G*
GUI = 2
METHOD = B3LYP
PRINT_ORBITALS false
MOLDEN_FORMAT false
--------------------------------------------------------------

             Standard Nuclear Orientation (Angstroms)
    I     Atom           X                Y                Z
 ----------------------------------------------------------------
    1      C      -1.8668678702    -2.4679053434     0.3437779030
    2      C      -2.3146346096    -1.3231628881    -0.1567547304
    3      C      -1.6346015144    -0.0459822422    -0.0958446953
    4      C      -2.2812718471     1.2201228695    -0.0422740992
    5      C      -1.2955482230     2.1522875777     0.0346513469
    6      O      -0.0874644686     1.5735665238     0.0177065558
    7      C      -0.2777391116     0.2365486414    -0.0630614013
    8      C       0.8553851407    -0.6373285193    -0.1807561017
    9      C       2.1239977587    -0.2694957600    -0.0356566172
   10      F       2.5738219457     0.9356960108     0.2785385828
   11      F       3.1500491908    -1.1054260297    -0.1788650852
   12      H      -2.4413182993    -3.3747055534     0.2645952970
   13      H      -0.9322370424    -2.5389130822     0.8728425016
   14      H      -3.2901895210    -1.2877300298    -0.6253054081
   15      H      -3.3376212354     1.3944116908    -0.0452979410
   16      H      -1.3241050254     3.2219008128     0.1004643928
   17      H       0.6580283028    -1.6664318726    -0.4305023963
 ----------------------------------------------------------------

    9    -583.2907857569      6.03e-06  Convergence criterion met
 Total energy in the final basis set =     -583.2907857569

                    Orbital Energies (a.u.)
 --------------------------------------------------------------

 Alpha MOs
 -- Occupied --
-24.7379 -24.7346 -19.2210 -10.3570 -10.2507 -10.2378 -10.2075 -10.1978
-10.1944 -10.1857 -10.1829  -1.2825  -1.2226  -1.1267  -0.8327  -0.8138
 -0.7634  -0.7310  -0.6453  -0.6224  -0.6022  -0.5797  -0.5553  -0.5226
 -0.5171  -0.5011  -0.4671  -0.4601  -0.4437  -0.4380  -0.4379  -0.4229
 -0.4128  -0.3982  -0.3750  -0.3580  -0.3190  -0.2962  -0.2542  -0.1995

          Ground-State Mulliken Net Atomic Charges

     Atom                 Charge (a.u.)
  ----------------------------------------
      1 C                    -0.354530
      2 C                    -0.107997
      3 C                     0.065198
      4 C                    -0.213209
      5 C                     0.077049
      6 O                    -0.434545
      7 C                     0.298886
      8 C                    -0.318162
      9 C                     0.560134
     10 F                    -0.228410
     11 F                    -0.247834
     12 H                     0.144314
     13 H                     0.147485
     14 H                     0.134948
     15 H                     0.141130
     16 H                     0.157046
     17 H                     0.178497
  ----------------------------------------
  Sum of atomic charges =     0.000000

                    Cartesian Multipole Moments
 -----------------------------------------------------------------
    Charge (ESU x 10^10)
                 0.0000
    Dipole Moment (Debye)
         X      -1.6545      Y      -0.1521      Z      -0.1685
       Tot       1.6700
    Quadrupole Moments (Debye-Ang)
        XX     -59.2423     XY      -1.7292     YY     -55.3566
        XZ       0.9117     YZ      -0.0248     ZZ     -62.5858

 Total job time:  18.40s(wall), 18.33s(cpu)
        *  Thank you very much for using Q-Chem.  Have a nice day.  *
