 Q-Chem 5.2, Q-Chem, Inc., Pleasanton, CA (2019)
 Q-Chem 5.2.1 for Intel X86 EM64T Linux

User input:
--------------------------------------------------------------
$molecule
0 1
C         5.19795309390000   -2.00702994730000   -0.90523242490000
C         4.02996155300000   -2.04939573040000   -0.27691324110000
C         3.12203338810000   -0.92926699080000   -0.04721507680000
C         3.49655336370000    0.39359824100000   -0.26454720910000
C         2.59816982350000    1.42550922470000   -0.02050094830000
C         2.94479332470000    2.82987635280000   -0.21909045250000
C         4.15927222400000    3.32529441480000   -0.42038517340000
C         1.30938822370000    1.12170854040000    0.41671365520000
C         0.90174440780000   -0.19335840600000    0.64456093090000
N        -0.34996819030000   -0.51443976130000    1.15990731070000
C        -1.07628582830000   -1.64604375730000    0.62697911780000
C        -1.89191703960000   -1.24679822230000   -0.60891350240000
C        -2.87013106940000   -0.11746746190000   -0.25516509990000
C        -2.10322153310000    1.05030045050000    0.38048724320000
C        -1.26747819810000    0.52864583300000    1.55484480930000
O        -3.85722132710000   -0.62640538440000    0.63235658110000
C        -5.12523188190000   -0.25617462740000    0.14435562450000
C        -4.88038863110000   -0.10141055390000   -1.35764146260000
O        -3.54869352670000    0.35527903600000   -1.40973906050000
C         1.84033929600000   -1.20409449350000    0.41894757850000
H         5.79877527460000   -2.89150628150000   -1.03228011850000
H         5.60103832290000   -1.10133687090000   -1.32465903320000
H         3.67600562930000   -3.00069768930000    0.10308310760000
H         4.48808526550000    0.61854486600000   -0.61859505650000
H         2.10423121630000    3.51280361730000   -0.17454653950000
H         5.04091297610000    2.70871317880000   -0.45542717070000
H         4.31927768700000    4.38205428100000   -0.55114637070000
H         0.62950187350000    1.94336652860000    0.57785219520000
H        -1.76178474660000   -2.00540924820000    1.40057132510000
H        -0.39375041920000   -2.45163578000000    0.36414106760000
H        -2.45459608930000   -2.10366256780000   -0.98099968850000
H        -1.22964052250000   -0.88811514750000   -1.39841992280000
H        -2.81494721640000    1.80217254140000    0.72368700860000
H        -1.47137135030000    1.49088306780000   -0.39067116980000
H        -1.95152912150000    0.09297484780000    2.29133541180000
H        -0.72104915460000    1.33854813010000    2.03866260530000
H        -5.44626857020000    0.69560773380000    0.58993615090000
H        -5.83630179180000   -1.04217557770000    0.39851451930000
H        -5.51850438360000    0.64101618430000   -1.83616523020000
H        -4.97747885010000   -1.06627849150000   -1.87413639650000
H         1.58116424730000   -2.23278260640000    0.61919381640000
$end

$rem
BASIS = 6-31G*
GUI = 2
METHOD = B3LYP
PRINT_ORBITALS false
MOLDEN_FORMAT false
--------------------------------------------------------------

             Standard Nuclear Orientation (Angstroms)
    I     Atom           X                Y                Z
 ----------------------------------------------------------------
    1      C       5.0834400635     2.3102738278     0.8576510127
    2      C       3.9096157849     2.2842909642     0.2393909141
    3      C       3.0671315262     1.1128755958     0.0162553024
    4      C       3.5205899122    -0.1858196644     0.2289452239
    5      C       2.6823264472    -1.2686005710    -0.0085241686
    6      C       3.1125653212    -2.6502854054     0.1855742676
    7      C       4.3557425069    -3.0735934510     0.3759381323
    8      C       1.3742075471    -1.0408090203    -0.4343708899
    9      C       0.8880515473     0.2481609499    -0.6573006884
   10      N      -0.3847512407     0.4954267900    -1.1615746448
   11      C      -1.1716945208     1.5820846765    -0.6212300460
   12      C      -1.9517961324     1.1348846105     0.6211609613
   13      C      -2.8649685739    -0.0497756901     0.2745709282
   14      C      -2.0362637046    -1.1700902828    -0.3688803041
   15      C      -1.2427487552    -0.5995463110    -1.5497781643
   16      O      -3.8878556547     0.4007875951    -0.6039246414
   17      C      -5.1276763510    -0.0436006711    -0.1054968894
   18      C      -4.8612515162    -0.1845756942     1.3941828217
   19      O      -3.5046240023    -0.5622477829     1.4343944395
   20      C       1.7675410470     1.3121772522    -0.4386303528
   21      H       5.6323239937     3.2284559764     0.9805117802
   22      H       5.5426391559     1.4295917179     1.2726348015
   23      H       3.4971185436     3.2133674975    -0.1365349552
   24      H       4.5266349606    -0.3523135867     0.5742559669
   25      H       2.3132314792    -3.3814029817     0.1474827262
   26      H       5.1998991715    -2.4062877257     0.4041050014
   27      H       4.5786842742    -4.1191994461     0.5041829186
   28      H       0.7424146112    -1.9009079969    -0.5905770500
   29      H      -1.8837538305     1.9009915748    -1.3885416880
   30      H      -0.5354383812     2.4262424346    -0.3633681901
   31      H      -2.5606297982     1.9569868948     0.9989727545
   32      H      -1.2628214461     0.8152850791     1.4045855858
   33      H      -2.7055063779    -1.9622899692    -0.7067931178
   34      H      -1.3730071657    -1.5732252446     0.3963686491
   35      H      -1.9575270996    -0.2044021232    -2.2799194314
   36      H      -0.6538569469    -1.3756581755    -2.0391276325
   37      H      -5.3960537201    -1.0123468357    -0.5493444760
   38      H      -5.8858620088     0.6994018106    -0.3527143541
   39      H      -5.4505008257    -0.9634948537     1.8773436288
   40      H      -5.0104220208     0.7726209054     1.9125326020
   41      H       1.4466564752     2.3239723272    -0.6355397561
 ----------------------------------------------------------------

    8    -865.5934103253      6.76e-06  Convergence criterion met
 Total energy in the final basis set =     -865.5934103253

                    Orbital Energies (a.u.)
 --------------------------------------------------------------

 Alpha MOs
 -- Occupied --
-19.1580 -19.1543 -14.3384 -10.2863 -10.2416 -10.2400 -10.2186 -10.2122
-10.2112 -10.1863 -10.1863 -10.1834 -10.1834 -10.1797 -10.1787 -10.1736
-10.1735 -10.1732 -10.1731 -10.1681  -1.0959  -1.0011  -0.9523  -0.8552
 -0.8108  -0.7966  -0.7700  -0.7638  -0.7336  -0.7178  -0.7084  -0.6515
 -0.6453  -0.6356  -0.6122  -0.6065  -0.5775  -0.5461  -0.5403  -0.5193
 -0.5113  -0.4996  -0.4868  -0.4787  -0.4703  -0.4639  -0.4527  -0.4447
 -0.4363  -0.4273  -0.4205  -0.4191  -0.4121  -0.4001  -0.3959  -0.3881
 -0.3725  -0.3710  -0.3671  -0.3591  -0.3549  -0.3471  -0.3454  -0.3396
 -0.3337  -0.3266  -0.3081  -0.2963  -0.2721  -0.2491  -0.2396  -0.2133
 -0.1865

          Ground-State Mulliken Net Atomic Charges

     Atom                 Charge (a.u.)
  ----------------------------------------
      1 C                    -0.351969
      2 C                    -0.117384
      3 C                     0.189502
      4 C                    -0.262414
      5 C                     0.187230
      6 C                    -0.116624
      7 C                    -0.351454
      8 C                    -0.282782
      9 C                     0.360209
     10 N                    -0.470088
     11 C                    -0.175642
     12 C                    -0.275083
     13 C                     0.536825
     14 C                    -0.283586
     15 C                    -0.169267
     16 O                    -0.511493
     17 C                    -0.046960
     18 C                    -0.051148
     19 O                    -0.516892
     20 C                    -0.267403
     21 H                     0.140600
     22 H                     0.143120
     23 H                     0.123387
     24 H                     0.117354
     25 H                     0.122704
     26 H                     0.143297
     27 H                     0.140556
     28 H                     0.123808
     29 H                     0.160920
     30 H                     0.154392
     31 H                     0.135542
     32 H                     0.157051
     33 H                     0.136420
     34 H                     0.158285
     35 H                     0.160566
     36 H                     0.155632
     37 H                     0.136411
     38 H                     0.151550
     39 H                     0.152203
     40 H                     0.136412
     41 H                     0.126216
  ----------------------------------------
  Sum of atomic charges =     0.000000

                    Cartesian Multipole Moments
 -----------------------------------------------------------------
    Charge (ESU x 10^10)
                 0.0000
    Dipole Moment (Debye)
         X      -2.8690      Y       0.1274      Z       0.1673
       Tot       2.8767
    Quadrupole Moments (Debye-Ang)
        XX    -103.0326     XY       0.4540     YY    -111.6952
        XZ       1.3165     YZ       2.0370     ZZ    -124.4964

 Total job time:  86.15s(wall), 85.41s(cpu)
        *  Thank you very much for using Q-Chem.  Have a nice day.  *
