 Q-Chem 5.2, Q-Chem, Inc., Pleasanton, CA (2019)
 Q-Chem 5.2.1 for Intel X86 EM64T Linux

User input:
--------------------------------------------------------------
$molecule
0 1
C         4.24491999270000   -2.74135518520000    0.95016310920000
C         3.72090276360000   -1.53338836010000    1.12105566620000
C         2.69039879950000   -0.90468868250000    0.30433260510000
C         2.17270107020000   -1.48570075500000   -0.85468225900000
C         1.18487255560000   -0.85201264130000   -1.57690011000000
C         0.68584481480000    0.38010231070000   -1.17382707640000
O        -0.29661214580000    0.96920029800000   -1.94368455570000
C        -1.54718234580000    1.15785174820000   -1.31342272910000
C        -2.26505174180000   -0.18139254530000   -1.04887104580000
C        -3.73551688440000    0.02857484990000   -0.66034214200000
C        -3.85767960860000    0.54243440310000    0.77279993400000
C        -3.11648386780000   -0.41372380960000    1.70369662800000
C        -1.67021673670000   -0.55425795100000    1.23182407440000
O        -1.58570723530000   -0.99105115840000   -0.10752844950000
C         1.21920986210000    1.00868892880000   -0.03879724690000
C         0.78933472260000    2.35585543260000    0.34244204960000
C         0.69296365970000    2.80139032840000    1.58779130770000
C         2.20412526810000    0.34431198440000    0.68198378800000
H         5.00409160860000   -3.12063776260000    1.61267359630000
H         3.94305144720000   -3.40062422720000    0.15482188770000
H         4.06790792280000   -0.92678130030000    1.94944956930000
H         2.53984405800000   -2.44207719760000   -1.19172397520000
H         0.77326388300000   -1.30524567020000   -2.46534843870000
H        -2.13625837380000    1.74766944920000   -2.01982402460000
H        -1.43552667940000    1.72324853320000   -0.38184422430000
H        -2.21056324320000   -0.76399807430000   -1.97695545430000
H        -4.24739550720000   -0.93338231340000   -0.73287966810000
H        -4.20348124800000    0.71905308990000   -1.36285345180000
H        -4.91040521440000    0.60687649210000    1.05466452090000
H        -3.42791020620000    1.54323200880000    0.85248876640000
H        -3.59834786620000   -1.39301315150000    1.67643580440000
H        -3.12980665180000   -0.04808360720000    2.73101014280000
H        -1.14128208250000   -1.31952149990000    1.80470776300000
H        -1.14144402340000    0.39982935630000    1.36788648910000
H         0.54412937880000    3.00824392310000   -0.48783007530000
H         0.90399266010000    2.17222607960000    2.43715648850000
H         0.38759980960000    3.81065506600000    1.80678945580000
H         2.62454117630000    0.83297709130000    1.54988006490000
$end

$rem
BASIS = 6-31G*
GUI = 2
METHOD = B3LYP
PRINT_ORBITALS false
MOLDEN_FORMAT false
--------------------------------------------------------------

             Standard Nuclear Orientation (Angstroms)
    I     Atom           X                Y                Z
 ----------------------------------------------------------------
    1      C       4.8676580009    -1.5489979484     0.8068937084
    2      C       4.0791424812    -0.4854762859     0.9076266309
    3      C       2.8807215853    -0.2093243823     0.1254720773
    4      C       2.4501620103    -1.0200068319    -0.9263424695
    5      C       1.2975108624    -0.7185908224    -1.6188077353
    6      C       0.5412205526     0.3998434918    -1.2921068576
    7      O      -0.5983213730     0.6541552568    -2.0281152696
    8      C      -1.8176488947     0.6143147538    -1.3150947272
    9      C      -2.1745660135    -0.8176832610    -0.8668858511
   10      C      -3.6264486353    -0.9150831620    -0.3771319706
   11      C      -3.7832041860    -0.2882622128     1.0068459109
   12      C      -2.7793245913    -0.9356289448     1.9572775930
   13      C      -1.3725808252    -0.7860486044     1.3803895063
   14      O      -1.2652812680    -1.3368114593     0.0854213878
   15      C       0.9740636429     1.2574815750    -0.2698564472
   16      C       0.2557363717     2.5007816789     0.0185952974
   17      C       0.1292378790     3.0467940131     1.2204905349
   18      C       2.1312023209     0.9255801587     0.4242990911
   19      H       5.7339465708    -1.6646627276     1.4356088537
   20      H       4.6867031827    -2.3445520210     0.1049841570
   21      H       4.3184809285     0.2734097218     1.6434461055
   22      H       3.0161858409    -1.8955422440    -1.2022079394
   23      H       0.9550534175    -1.3510591294    -2.4231018666
   24      H      -2.5725140182     0.9682057470    -2.0213794344
   25      H      -1.7902140157     1.2898858041    -0.4532188043
   26      H      -2.0367018315    -1.4706995405    -1.7376912680
   27      H      -3.8948260550    -1.9719071021    -0.3159787077
   28      H      -4.2880171046    -0.4352440146    -1.0991808187
   29      H      -4.8017114935    -0.4405384097     1.3691806370
   30      H      -3.6032992594     0.7877045771     0.9560760240
   31      H      -3.0117520012    -1.9971667187     2.0624381104
   32      H      -2.8191157776    -0.4715880291     2.9433435146
   33      H      -0.6416545311    -1.3382730083     1.9756968627
   34      H      -1.0821559038     0.2741627567     1.3815675312
   35      H      -0.1884806282     2.9816653803    -0.8454129938
   36      H       0.5358897247     2.5824834149     2.1041488660
   37      H      -0.3967197558     3.9747525304     1.3690978594
   38      H       2.4724284718     1.5920533406     1.2041486161
 ----------------------------------------------------------------

    9    -772.1296894855      2.05e-06  Convergence criterion met
 Total energy in the final basis set =     -772.1296894855

                    Orbital Energies (a.u.)
 --------------------------------------------------------------

 Alpha MOs
 -- Occupied --
-19.1636 -19.1410 -10.2360 -10.2325 -10.2312 -10.2205 -10.1918 -10.1888
-10.1859 -10.1840 -10.1839 -10.1830 -10.1829 -10.1818 -10.1814 -10.1790
-10.1777 -10.1722  -1.0565  -1.0296  -0.8602  -0.8045  -0.8002  -0.7822
 -0.7701  -0.7307  -0.7230  -0.6878  -0.6390  -0.6350  -0.6204  -0.6051
 -0.5776  -0.5526  -0.5366  -0.5205  -0.5025  -0.4875  -0.4812  -0.4695
 -0.4598  -0.4556  -0.4454  -0.4335  -0.4308  -0.4206  -0.4197  -0.4130
 -0.3948  -0.3824  -0.3809  -0.3736  -0.3690  -0.3669  -0.3449  -0.3436
 -0.3357  -0.3325  -0.3230  -0.3090  -0.2909  -0.2785  -0.2734  -0.2431
 -0.2315  -0.2020

          Ground-State Mulliken Net Atomic Charges

     Atom                 Charge (a.u.)
  ----------------------------------------
      1 C                    -0.357980
      2 C                    -0.112729
      3 C                     0.190419
      4 C                    -0.193112
      5 C                    -0.142315
      6 C                     0.315522
      7 O                    -0.537316
      8 C                    -0.068728
      9 C                     0.122809
     10 C                    -0.282380
     11 C                    -0.277175
     12 C                    -0.273818
     13 C                    -0.041041
     14 O                    -0.472270
     15 C                     0.128512
     16 C                    -0.141334
     17 C                    -0.344033
     18 C                    -0.284592
     19 H                     0.140413
     20 H                     0.140141
     21 H                     0.123250
     22 H                     0.127617
     23 H                     0.131764
     24 H                     0.144937
     25 H                     0.149157
     26 H                     0.138707
     27 H                     0.144939
     28 H                     0.133399
     29 H                     0.138845
     30 H                     0.137839
     31 H                     0.140807
     32 H                     0.133710
     33 H                     0.146460
     34 H                     0.133933
     35 H                     0.151448
     36 H                     0.143712
     37 H                     0.143154
     38 H                     0.127329
  ----------------------------------------
  Sum of atomic charges =     0.000000

                    Cartesian Multipole Moments
 -----------------------------------------------------------------
    Charge (ESU x 10^10)
                 0.0000
    Dipole Moment (Debye)
         X      -1.9179      Y       0.3861      Z       1.2142
       Tot       2.3025
    Quadrupole Moments (Debye-Ang)
        XX    -101.1010     XY      -2.7527     YY    -105.4955
        XZ       2.4263     YZ       3.8244     ZZ    -106.1564

 Total job time:  94.32s(wall), 94.05s(cpu)
        *  Thank you very much for using Q-Chem.  Have a nice day.  *
