 Q-Chem 5.2, Q-Chem, Inc., Pleasanton, CA (2019)
 Q-Chem 5.2.1 for Intel X86 EM64T Linux

User input:
--------------------------------------------------------------
$molecule
0 1
C         3.26202245400000    1.50868663590000    1.97021321400000
C         3.08840413580000    0.95716776960000    0.77451801820000
C         2.09539106980000   -0.03276353090000    0.41215260110000
S         2.63451254090000   -1.30360381900000   -0.64687502040000
C         1.08175954780000   -2.07835205010000   -0.58316108660000
C         0.86244074250000   -3.33268215010000   -1.25120875090000
C         1.72960093870000   -3.91800455380000   -2.07316145210000
C         0.19345363120000   -1.35340318250000    0.18081392860000
C        -1.22843291840000   -1.78941869440000    0.37514137450000
C        -2.06944053250000   -1.61513546080000   -0.89654849660000
C        -3.44514208020000   -2.27517326200000   -0.79465123220000
C        -4.33981744460000   -1.74531939040000    0.32737152330000
C        -4.68932368380000   -0.26553608490000    0.18653161540000
C        -5.70110788810000    0.17261306420000    1.23853573020000
C         0.77110850350000   -0.18465316170000    0.74944841710000
C        -0.00438507190000    0.81655785050000    1.55221353550000
C        -0.87077778860000    1.71981258830000    0.66262173060000
C        -0.05507613900000    2.63410094720000   -0.25053185200000
C         0.63245882160000    3.77297797930000    0.49973681540000
C         1.31574246860000    4.77413759310000   -0.43225358600000
C         2.53857786020000    4.19621392200000   -1.13441947700000
H         4.04863327220000    2.22329093320000    2.14315247600000
H         2.65414166960000    1.25625638920000    2.82204862430000
H         3.78241386040000    1.19856705310000   -0.02240349510000
H        -0.08393300210000   -3.81249522670000   -1.04061646440000
H         2.67859077600000   -3.46391768890000   -2.30646662720000
H         1.51742141850000   -4.86440249610000   -2.53819034530000
H        -1.67654996750000   -1.21968757160000    1.18757075910000
H        -1.24280025790000   -2.84510835950000    0.66160959300000
H        -1.53625361190000   -2.06074738190000   -1.73936269760000
H        -2.18471177950000   -0.55374501680000   -1.12036225420000
H        -3.30783847240000   -3.34992686600000   -0.64706350810000
H        -3.96179794250000   -2.13941585330000   -1.74831426160000
H        -3.86210139500000   -1.91450384750000    1.29426266130000
H        -5.26745976850000   -2.32390011310000    0.32088713070000
H        -5.10013411910000   -0.08560607100000   -0.80976769490000
H        -3.78873623150000    0.34136127250000    0.29063890870000
H        -6.62561504140000   -0.39241659620000    1.13999930250000
H        -5.93236533190000    1.22994307220000    1.13126535730000
H        -5.30624254390000    0.00787869150000    2.23905712040000
H         0.67486198160000    1.44177569770000    2.12450162630000
H        -0.64944664620000    0.29255203270000    2.26173958580000
H        -1.51332177490000    2.32949970800000    1.30314636620000
H        -1.51483989150000    1.09470596700000    0.04322670560000
H        -0.72597530320000    3.06593595930000   -0.99804618200000
H         0.68793481210000    2.03446614640000   -0.77769664480000
H         1.37857949620000    3.36799712270000    1.18571671850000
H        -0.11747273070000    4.30304122450000    1.09338472460000
H         1.62609717380000    5.64177042860000    0.15537870610000
H         0.59760984660000    5.12220691600000   -1.17872025260000
H         3.25577019320000    3.83122875220000   -0.40273845110000
H         3.02249324780000    4.95903445370000   -1.74057885770000
H         2.26132705570000    3.37150919950000   -1.78552301920000
$end

$rem
BASIS = 6-31G*
GUI = 2
METHOD = B3LYP
PRINT_ORBITALS false
MOLDEN_FORMAT false
--------------------------------------------------------------

             Standard Nuclear Orientation (Angstroms)
    I     Atom           X                Y                Z
 ----------------------------------------------------------------
    1      C      -3.6142611582     0.1251043764     2.0111130146
    2      C      -3.1605819690     0.7543700923     0.9330577128
    3      C      -1.7875979095     1.1243980158     0.6585732278
    4      S      -1.5479620127     2.6880952661    -0.0657554600
    5      C       0.1769542654     2.4912229065    -0.0305240509
    6      C       1.0432501606     3.5541437180    -0.4634942466
    7      C       0.6351681852     4.6753209858    -1.0522267840
    8      C       0.5281213004     1.2574527303     0.4722571657
    9      C       1.9591723342     0.8224492936     0.5840560546
   10      C       2.5846779814     0.5222284769    -0.7846929097
   11      C       4.0983137246     0.3159772601    -0.7143013467
   12      C       4.5568798791    -0.8416018686     0.1744347444
   13      C       4.0552532017    -2.2072846854    -0.2892787909
   14      C       4.6624826147    -3.3356284113     0.5356499858
   15      C      -0.5930771745     0.4757420936     0.8657662565
   16      C      -0.4861197233    -0.9338278324     1.3656845889
   17      C      -0.2352630662    -1.9308960393     0.2251562163
   18      C      -1.4071587851    -2.0458374094    -0.7488000226
   19      C      -2.6063879504    -2.7859776059    -0.1599959906
   20      C      -3.7133754194    -3.0376510671    -1.1842237170
   21      C      -4.4260971658    -1.7621232885    -1.6171390683
   22      H      -4.6634035410    -0.0853508358     2.1308324098
   23      H      -2.9734983297    -0.1793775354     2.8207903620
   24      H      -3.8684294606     1.1009238931     0.1888404045
   25      H       2.0971822712     3.4018270036    -0.2731795364
   26      H      -0.4069119449     4.8552086120    -1.2593917938
   27      H       1.3277996190     5.4439416087    -1.3462082810
   28      H       2.0227308658    -0.0631155720     1.2142775465
   29      H       2.5375878171     1.6160866611     1.0660585314
   30      H       2.3828452594     1.3576566935    -1.4588718928
   31      H       2.1118610779    -0.3584281693    -1.2215198553
   32      H       4.5604253741     1.2363120061    -0.3466513705
   33      H       4.4686053067     0.1467430700    -1.7287373776
   34      H       4.2372873264    -0.6684400612     1.2037986577
   35      H       5.6501118189    -0.8543259997     0.1744926997
   36      H       4.3129473300    -2.3474160874    -1.3417564704
   37      H       2.9687170748    -2.2539490294    -0.2027792294
   38      H       5.7465639013    -3.3371389951     0.4437429497
   39      H       4.2885591868    -4.3002133661     0.1999554535
   40      H       4.4099974957    -3.2173013163     1.5874812789
   41      H      -1.4000922982    -1.2172244753     1.8796184855
   42      H       0.3335049919    -1.0032728764     2.0850638072
   43      H      -0.0279669487    -2.9130101157     0.6579763033
   44      H       0.6494144603    -1.6184812331    -0.3306919107
   45      H      -1.0682216425    -2.5853481737    -1.6372900835
   46      H      -1.7054795531    -1.0445115302    -1.0616595590
   47      H      -3.0226315590    -2.2150491690     0.6719030183
   48      H      -2.2653256166    -3.7488384707     0.2303341986
   49      H      -4.4473280954    -3.7175232017    -0.7443307291
   50      H      -3.2895268941    -3.5335950751    -2.0608485907
   51      H      -4.8399127043    -1.2494850489    -0.7517519435
   52      H      -5.2395260789    -1.9965592926    -2.3004191164
   53      H      -3.7426142623    -1.0857586237    -2.1234232487
 ----------------------------------------------------------------

    9   -1179.5572241435      2.35e-06  Convergence criterion met
 Total energy in the final basis set =    -1179.5572241435

                    Orbital Energies (a.u.)
 --------------------------------------------------------------

 Alpha MOs
 -- Occupied --
-88.8941 -10.2112 -10.2083 -10.1982 -10.1942 -10.1894 -10.1889 -10.1860
-10.1829 -10.1818 -10.1783 -10.1777 -10.1758 -10.1757 -10.1755 -10.1742
-10.1697 -10.1689 -10.1671 -10.1653 -10.1625  -7.9562  -5.9202  -5.9166
 -5.9130  -0.8883  -0.8164  -0.8127  -0.7996  -0.7856  -0.7698  -0.7651
 -0.7381  -0.7201  -0.6894  -0.6836  -0.6492  -0.6421  -0.6204  -0.6027
 -0.5923  -0.5706  -0.5561  -0.5524  -0.5278  -0.5189  -0.4862  -0.4760
 -0.4675  -0.4579  -0.4574  -0.4468  -0.4418  -0.4362  -0.4314  -0.4235
 -0.4160  -0.4098  -0.4075  -0.4001  -0.3887  -0.3867  -0.3822  -0.3768
 -0.3682  -0.3628  -0.3600  -0.3556  -0.3473  -0.3448  -0.3398  -0.3360
 -0.3338  -0.3240  -0.3193  -0.3170  -0.3128  -0.3097  -0.3090  -0.3007
 -0.2993  -0.2656  -0.2346  -0.1952

          Ground-State Mulliken Net Atomic Charges

     Atom                 Charge (a.u.)
  ----------------------------------------
      1 C                    -0.337423
      2 C                    -0.101614
      3 C                    -0.218563
      4 S                     0.224821
      5 C                    -0.201264
      6 C                    -0.055062
      7 C                    -0.378156
      8 C                     0.116458
      9 C                    -0.354255
     10 C                    -0.270904
     11 C                    -0.259014
     12 C                    -0.251414
     13 C                    -0.259615
     14 C                    -0.441245
     15 C                     0.148462
     16 C                    -0.356778
     17 C                    -0.273251
     18 C                    -0.257978
     19 C                    -0.256714
     20 C                    -0.249939
     21 C                    -0.446394
     22 H                     0.145996
     23 H                     0.153982
     24 H                     0.146373
     25 H                     0.138046
     26 H                     0.156546
     27 H                     0.143989
     28 H                     0.148971
     29 H                     0.147638
     30 H                     0.145639
     31 H                     0.150875
     32 H                     0.124980
     33 H                     0.129768
     34 H                     0.132680
     35 H                     0.128509
     36 H                     0.131291
     37 H                     0.141453
     38 H                     0.142586
     39 H                     0.141961
     40 H                     0.141000
     41 H                     0.149920
     42 H                     0.142393
     43 H                     0.128876
     44 H                     0.146260
     45 H                     0.124756
     46 H                     0.149721
     47 H                     0.142638
     48 H                     0.120009
     49 H                     0.126406
     50 H                     0.127352
     51 H                     0.141830
     52 H                     0.138689
     53 H                     0.148709
  ----------------------------------------
  Sum of atomic charges =     0.000000

                    Cartesian Multipole Moments
 -----------------------------------------------------------------
    Charge (ESU x 10^10)
                 0.0000
    Dipole Moment (Debye)
         X       0.8424      Y      -0.8145      Z       0.2834
       Tot       1.2056
    Quadrupole Moments (Debye-Ang)
        XX    -134.0327     XY       2.8715     YY    -141.1923
        XZ      -1.4834     YZ      -2.8537     ZZ    -140.1707

 Total job time:  149.99s(wall), 149.59s(cpu)
        *  Thank you very much for using Q-Chem.  Have a nice day.  *
