 Q-Chem 5.4, Q-Chem, Inc., Pleasanton, CA (2021)
 Q-Chem 5.4.2 for Intel X86 EM64T Linux

User input:
--------------------------------------------------------------
$molecule
0 1
C           -2.10708814450000       -2.18331597480000       -0.75210481650000
C           -1.18647620750000       -2.04977585970000        0.19087332650000
C           -0.04101109280000       -1.13910467960000        0.12345787620000
C            1.20826002750000       -1.62641899000000        0.49454616560000
C            2.36262242460000       -0.87754450730000        0.36443609020000
C            2.28850355650000        0.41069848150000       -0.15506099610000
O            3.34757788870000        1.24160190760000       -0.35029763310000
C            4.63304800190000        0.78356248850000       -0.00657641290000
C            1.04133698340000        0.92453293120000       -0.50291412930000
C           -0.11914784300000        0.17965582790000       -0.35174836910000
C           -1.38729014910000        0.85118268400000       -0.65720806900000
C           -2.45684863450000        0.84285231180000        0.11702251370000
F           -2.59833145570000        0.20845267850000        1.27406279300000
F           -3.58163659270000        1.50155716600000       -0.16052599620000
H           -2.90516988920000       -2.90006661920000       -0.66363409500000
H           -2.09529476010000       -1.58826519850000       -1.65050125990000
H           -1.20990676340000       -2.69438813560000        1.06028706590000
H            1.27940266570000       -2.63390725550000        0.87840479070000
H            3.30530479500000       -1.30769917660000        0.66295163550000
H            5.31082567320000        1.60065375160000       -0.24823913040000
H            4.91310036550000       -0.10167473860000       -0.58658389940000
H            4.70678868970000        0.55740952960000        1.06198781220000
H            0.99474296580000        1.93644672680000       -0.87432638140000
H           -1.42871007230000        1.47069865420000       -1.54039181750000
$end

$rem
BASIS = 6-31G*
GUI = 2
METHOD = B3LYP
PRINT_ORBITALS false
MOLDEN_FORMAT false
$end
--------------------------------------------------------------

             Standard Nuclear Orientation (Angstroms)
    I     Atom           X                Y                Z
 ----------------------------------------------------------------
    1      C       2.3145133290     1.9143409045    -0.9865276694
    2      C       1.4023398707     1.9410377780    -0.0264266653
    3      C       0.2026701785     1.1014219105     0.0159407132
    4      C      -1.0086777181     1.7027377493     0.3429202587
    5      C      -2.2083623504     1.0174307560     0.3054332694
    6      C      -2.2209014478    -0.3215252316    -0.0713696786
    7      O      -3.3314960192    -1.1011871347    -0.1655148001
    8      C      -4.5811806849    -0.5296251225     0.1377720300
    9      C      -1.0129043263    -0.9465113460    -0.3723471135
   10      C       0.1929766572    -0.2632749540    -0.3135499650
   11      C       1.4129755952    -1.0414435566    -0.5554075108
   12      C       2.4930348804    -1.0159898689     0.2037247532
   13      F       2.6909335667    -0.2702557902     1.2835114382
   14      F       3.5711793244    -1.7695043505    -0.0105033849
   15      H       3.1560153205     2.5854293537    -0.9837495965
   16      H       2.2524866818     1.2275450995    -1.8146610506
   17      H       1.4785432491     2.6731511493     0.7673978015
   18      H      -1.0123728699     2.7482823197     0.6154348846
   19      H      -3.1183400961     1.5351216418     0.5637572343
   20      H      -5.3111173691    -1.3243134960    -0.0074326499
   21      H      -4.8158838855     0.3034120812    -0.5326355950
   22      H      -4.6243051766    -0.1851311026     1.1759803432
   23      H      -1.0337839607    -1.9935747241    -0.6317886603
   24      H       1.4028063392    -1.7541780903    -1.3662313213
 ----------------------------------------------------------------

    9    -700.0266842588      4.93e-06  Convergence criterion met
 Total energy in the final basis set =     -700.0266842588

                    Orbital Energies (a.u.)
 --------------------------------------------------------------

 Alpha MOs
 -- Occupied --
-24.7306 -24.7271 -19.1801 -10.3476 -10.2472 -10.2421 -10.2036 -10.1937
-10.1894 -10.1888 -10.1866 -10.1845 -10.1828 -10.1720  -1.2746  -1.2146
 -1.0706  -0.8686  -0.8026  -0.7877  -0.7480  -0.7310  -0.6948  -0.6388
 -0.6112  -0.6032  -0.5667  -0.5626  -0.5375  -0.5104  -0.5018  -0.4871
 -0.4792  -0.4735  -0.4451  -0.4415  -0.4316  -0.4314  -0.4223  -0.4116
 -0.4043  -0.3940  -0.3798  -0.3632  -0.3464  -0.3294  -0.3280  -0.2825
 -0.2677  -0.2304  -0.2057

          Ground-State Mulliken Net Atomic Charges

     Atom                 Charge (a.u.)
  ----------------------------------------
      1 C                    -0.334180
      2 C                    -0.140106
      3 C                     0.109459
      4 C                    -0.195369
      5 C                    -0.191640
      6 C                     0.382853
      7 O                    -0.504836
      8 C                    -0.215246
      9 C                    -0.233738
     10 C                     0.121129
     11 C                    -0.354924
     12 C                     0.584503
     13 F                    -0.234107
     14 F                    -0.250168
     15 H                     0.140120
     16 H                     0.147152
     17 H                     0.132870
     18 H                     0.130208
     19 H                     0.130888
     20 H                     0.170327
     21 H                     0.151615
     22 H                     0.151780
     23 H                     0.135933
     24 H                     0.165477
  ----------------------------------------
  Sum of atomic charges =     0.000000

                    Cartesian Multipole Moments
 -----------------------------------------------------------------
    Charge (ESU x 10^10)
                 0.0000
    Dipole Moment (Debye)
         X      -2.3304      Y       0.7635      Z      -0.1275
       Tot       2.4556
    Quadrupole Moments (Debye-Ang)
        XX     -69.7780     XY      -0.3244     YY     -76.9178
        XZ      -3.5763     YZ       2.7494     ZZ     -79.7736

 Total job time:  56.28s(wall), 53.23s(cpu)
        *  Thank you very much for using Q-Chem.  Have a nice day.  *
