 Q-Chem 5.2, Q-Chem, Inc., Pleasanton, CA (2019)
 Q-Chem 5.2.1 for Intel X86 EM64T Linux

User input:
--------------------------------------------------------------
$molecule
0 1
C        -1.25326536480000    0.98760739320000   -2.35296706360000
C        -1.19441927150000   -0.27901069250000   -1.96794016840000
C        -1.40210723110000   -0.76657287290000   -0.60245600350000
C        -2.12301284560000   -1.94749966590000   -0.43367590950000
C        -2.41930237490000   -2.43569801930000    0.82388414730000
C        -1.98900263200000   -1.74801721970000    1.94591654010000
C        -1.25056248290000   -0.58946148390000    1.79683430990000
C        -0.93719572360000   -0.09298333700000    0.53577383710000
C        -0.09697497500000    1.11679059530000    0.45122516350000
C        -0.51693892300000    2.27428340660000    1.10007168750000
C         0.21899473380000    3.44218119280000    1.02964537500000
C         1.39376261390000    3.47185577420000    0.29666612600000
C         1.82950939840000    2.32832684560000   -0.34486335700000
C         1.10942878980000    1.13956962990000   -0.26057661040000
C         1.65023624930000   -0.04033368490000   -0.94175234730000
C         1.75163357260000   -1.25398096720000   -0.43165316310000
F         1.40835973740000   -1.64560877780000    0.78869060290000
F         2.26738345700000   -2.29162562040000   -1.09154960510000
H        -1.12796119210000    1.26777220250000   -3.38521899970000
H        -1.43884437830000    1.79077227410000   -1.66034072850000
H        -1.04915326220000   -1.05594592150000   -2.70960590460000
H        -2.46788258290000   -2.47690966830000   -1.31083022850000
H        -2.98249639910000   -3.35115654350000    0.92867410580000
H        -2.21607074360000   -2.12005893130000    2.93368462810000
H        -0.88127240720000   -0.06866130110000    2.66835464540000
H        -1.44814995890000    2.25411843840000    1.64793432650000
H        -0.12777735070000    4.32997200000000    1.53722692760000
H         1.96873701560000    4.38285309700000    0.22569684350000
H         2.75171443690000    2.34348247700000   -0.90739740170000
H         2.04909975120000    0.10012424960000   -1.93547631190000
$end

$rem
BASIS = 6-31G*
GUI = 2
METHOD = B3LYP
PRINT_ORBITALS false
MOLDEN_FORMAT false
--------------------------------------------------------------

             Standard Nuclear Orientation (Angstroms)
    I     Atom           X                Y                Z
 ----------------------------------------------------------------
    1      C      -0.4152714015     0.3003010926     2.7568358318
    2      C       0.7143288735    -0.0869014102     2.1822861052
    3      C       1.2969768144     0.4915735017     0.9693201839
    4      C       2.6793887210     0.6647676376     0.9278373281
    5      C       3.2968225799     1.2654958838    -0.1517382450
    6      C       2.5352279197     1.7013044939    -1.2227489220
    7      C       1.1661146183     1.5138671244    -1.2098354088
    8      C       0.5336789314     0.9012941678    -0.1329221035
    9      C      -0.9231719653     0.6821599094    -0.2119030710
   10      C      -1.7571747086     1.7752159885    -0.4283030935
   11      C      -3.1305162120     1.6286878537    -0.4831307540
   12      C      -3.6959275148     0.3757136150    -0.3140616911
   13      C      -2.8810554367    -0.7210240051    -0.1085286344
   14      C      -1.4952755102    -0.5893930411    -0.0761042438
   15      C      -0.6948234656    -1.8023978092     0.1150524511
   16      C       0.3735492004    -2.1462777485    -0.5804680407
   17      F       0.9229955419    -1.4856211115    -1.5914525614
   18      F       1.0576752864    -3.2722518317    -0.3747460283
   19      H      -0.7623964202    -0.1474562714     3.6726715594
   20      H      -1.0303750721     1.0825596524     2.3457839417
   21      H       1.3213941990    -0.8482817421     2.6582801267
   22      H       3.2710806635     0.3341518134     1.7699796009
   23      H       4.3693351221     1.3915902421    -0.1587961133
   24      H       3.0074659025     2.1732585661    -2.0712248494
   25      H       0.5713511265     1.8189947183    -2.0585457397
   26      H      -1.3133114561     2.7549696271    -0.5321410018
   27      H      -3.7590977832     2.4911695980    -0.6476691315
   28      H      -4.7682083273     0.2535188455    -0.3428821902
   29      H      -3.3170779488    -1.7021684228     0.0113729010
   30      H      -1.0334261242    -2.5077736641     0.8594320486
 ----------------------------------------------------------------

    9    -816.5538518131      4.82e-06  Convergence criterion met
 Total energy in the final basis set =     -816.5538518131

                    Orbital Energies (a.u.)
 --------------------------------------------------------------

 Alpha MOs
 -- Occupied --
-24.7309 -24.7265 -10.3477 -10.2013 -10.1951 -10.1937 -10.1926 -10.1920
-10.1880 -10.1875 -10.1870 -10.1861 -10.1856 -10.1845 -10.1839 -10.1836
-10.1831 -10.1742  -1.2747  -1.2145  -0.8792  -0.8539  -0.8028  -0.7880
 -0.7760  -0.7377  -0.7287  -0.7166  -0.6413  -0.6268  -0.6150  -0.5961
 -0.5885  -0.5643  -0.5566  -0.5284  -0.5102  -0.5057  -0.4903  -0.4746
 -0.4599  -0.4578  -0.4413  -0.4335  -0.4318  -0.4258  -0.4225  -0.4186
 -0.4154  -0.4032  -0.3755  -0.3728  -0.3633  -0.3624  -0.3468  -0.3363
 -0.3335  -0.2979  -0.2700  -0.2630  -0.2400  -0.2312  -0.2134

          Ground-State Mulliken Net Atomic Charges

     Atom                 Charge (a.u.)
  ----------------------------------------
      1 C                    -0.334422
      2 C                    -0.135607
      3 C                     0.131311
      4 C                    -0.196448
      5 C                    -0.119725
      6 C                    -0.132420
      7 C                    -0.155365
      8 C                     0.005040
      9 C                     0.003382
     10 C                    -0.171758
     11 C                    -0.130719
     12 C                    -0.125294
     13 C                    -0.187965
     14 C                     0.169015
     15 C                    -0.342576
     16 C                     0.573992
     17 F                    -0.232225
     18 F                    -0.251611
     19 H                     0.138287
     20 H                     0.158204
     21 H                     0.131740
     22 H                     0.127616
     23 H                     0.128053
     24 H                     0.128258
     25 H                     0.133280
     26 H                     0.134847
     27 H                     0.129341
     28 H                     0.128993
     29 H                     0.129146
     30 H                     0.165629
  ----------------------------------------
  Sum of atomic charges =     0.000000

                    Cartesian Multipole Moments
 -----------------------------------------------------------------
    Charge (ESU x 10^10)
                 0.0000
    Dipole Moment (Debye)
         X      -0.8028      Y       0.4114      Z       0.4730
       Tot       1.0186
    Quadrupole Moments (Debye-Ang)
        XX     -91.9646     XY       1.7979     YY     -99.8563
        XZ      -0.0352     YZ      -5.4642     ZZ    -100.2641

 Total job time:  82.73s(wall), 82.41s(cpu)
        *  Thank you very much for using Q-Chem.  Have a nice day.  *
