 Q-Chem 5.2, Q-Chem, Inc., Pleasanton, CA (2019)
 Q-Chem 5.2.1 for Intel X86 EM64T Linux

User input:
--------------------------------------------------------------
$molecule
0 1
C        -3.82474380410000   -0.47765029560000    0.24834932010000
C        -2.95665303240000    0.49976489710000    0.01848591690000
C        -1.50566721860000    0.37715389000000   -0.04621525940000
C        -0.81643417480000   -0.82962853130000    0.06117179280000
C         0.56958514750000   -0.86212435260000    0.00020252970000
C         1.27259712890000   -2.18212495510000    0.07387758040000
C         1.24576062200000    0.35530097030000   -0.16808701200000
C         2.69633404260000    0.51456727890000   -0.22939865490000
C         3.59029239760000   -0.12483428710000    0.51278714030000
C         0.45670285600000    1.50333432110000   -0.30416586000000
N        -0.85329728310000    1.52720577730000   -0.23956738310000
H        -4.88392961040000   -0.28795739780000    0.28099413250000
H        -3.52542724280000   -1.49877145510000    0.41516725600000
H        -3.30362119460000    1.51241124340000   -0.13664303210000
H        -1.35996049600000   -1.75427766370000    0.18090028720000
H         0.63676637610000   -2.96787861970000   -0.32963119320000
H         1.49503250190000   -2.43477317480000    1.11068328320000
H         2.20759564760000   -2.15817386210000   -0.48071507710000
H         3.03207399980000    1.28029545460000   -0.91928014410000
H         3.31361386610000   -0.85111015330000    1.25668109530000
H         4.64300989310000    0.08447002730000    0.42296289580000
H         0.93026739500000    2.46525688330000   -0.46207648780000
$end

$rem
BASIS = 6-31G*
GUI = 2
METHOD = B3LYP
PRINT_ORBITALS false
MOLDEN_FORMAT false
--------------------------------------------------------------

             Standard Nuclear Orientation (Angstroms)
    I     Atom           X                Y                Z
 ----------------------------------------------------------------
    1      C       3.8141612764    -0.6724831855    -0.1765267425
    2      C       3.0016393289     0.3728048941    -0.0819743950
    3      C       1.5466332878     0.3391554876    -0.0019452066
    4      C       0.7926100985    -0.8317755281     0.0552174271
    5      C      -0.5926922156    -0.7803145554     0.1193427569
    6      C      -1.3663464612    -2.0579267620     0.2252748468
    7      C      -1.2010654377     0.4836237276     0.1203907157
    8      C      -2.6404842722     0.7283437564     0.1587788593
    9      C      -3.5727095815     0.0437265241    -0.4901362936
   10      C      -0.3503352225     1.5949020332     0.0996828882
   11      N       0.9585702795     1.5385490761     0.0330953124
   12      H       4.8817844320    -0.5468272334    -0.2341030460
   13      H       3.4590795359    -1.6890012960    -0.2032650777
   14      H       3.4037647426     1.3767635193    -0.0656419270
   15      H       1.2846512169    -1.7922832097     0.0624509334
   16      H      -0.7710440531    -2.8150747511     0.7320794083
   17      H      -1.6092173341    -2.4364057396    -0.7677216718
   18      H      -2.2948510653    -1.9081847717     0.7710086987
   19      H      -2.9296879510     1.5976780974     0.7381030024
   20      H      -3.3407247892    -0.7906949721    -1.1283601437
   21      H      -4.6119662790     0.3201891851    -0.4300968902
   22      H      -0.7702452177     2.5936592877     0.1252503896
 ----------------------------------------------------------------

    9    -442.3987460525      2.49e-06  Convergence criterion met
 Total energy in the final basis set =     -442.3987460525

                    Orbital Energies (a.u.)
 --------------------------------------------------------------

 Alpha MOs
 -- Occupied --
-14.3181 -10.2211 -10.2141 -10.2105 -10.1984 -10.1967 -10.1893 -10.1865
-10.1862 -10.1853 -10.1821  -0.9455  -0.8346  -0.8019  -0.7754  -0.7271
 -0.7127  -0.6490  -0.6122  -0.5775  -0.5533  -0.5095  -0.4908  -0.4740
 -0.4482  -0.4406  -0.4291  -0.4246  -0.3993  -0.3976  -0.3915  -0.3792
 -0.3567  -0.3436  -0.3157  -0.2808  -0.2669  -0.2469  -0.2208

          Ground-State Mulliken Net Atomic Charges

     Atom                 Charge (a.u.)
  ----------------------------------------
      1 C                    -0.348132
      2 C                    -0.088704
      3 C                     0.302746
      4 C                    -0.230022
      5 C                     0.158812
      6 C                    -0.535946
      7 C                     0.076890
      8 C                    -0.140064
      9 C                    -0.335678
     10 C                    -0.007526
     11 N                    -0.486839
     12 H                     0.148224
     13 H                     0.141604
     14 H                     0.144782
     15 H                     0.125445
     16 H                     0.159716
     17 H                     0.169212
     18 H                     0.173791
     19 H                     0.140255
     20 H                     0.148770
     21 H                     0.146865
     22 H                     0.135799
  ----------------------------------------
  Sum of atomic charges =     0.000000

                    Cartesian Multipole Moments
 -----------------------------------------------------------------
    Charge (ESU x 10^10)
                 0.0000
    Dipole Moment (Debye)
         X      -1.2879      Y      -1.8911      Z       0.0340
       Tot       2.2882
    Quadrupole Moments (Debye-Ang)
        XX     -58.6746     XY      -3.3011     YY     -63.1692
        XZ      -0.1445     YZ       1.2926     ZZ     -67.3931

 Total job time:  24.58s(wall), 24.49s(cpu)
        *  Thank you very much for using Q-Chem.  Have a nice day.  *
