 Q-Chem 5.2, Q-Chem, Inc., Pleasanton, CA (2019)
 Q-Chem 5.2.1 for Intel X86 EM64T Linux

User input:
--------------------------------------------------------------
$molecule
0 1
C        -2.52596377520000    2.52595332220000    0.17558739610000
C        -2.34219986340000    1.27225839700000   -0.21903695390000
C        -1.09181280910000    0.55134242230000   -0.09709614070000
C         0.20488842570000    1.11362499870000   -0.04684527010000
C         1.09396707500000    0.06260624330000   -0.01758806420000
C         2.56511714240000    0.01102135650000    0.02926642190000
O         3.20032064520000   -1.00527339920000    0.03437659680000
O         3.17445431200000    1.21592817390000    0.06637457420000
O         0.41830921700000   -1.10319595360000   -0.04428766970000
C        -0.89566581400000   -0.82776518410000   -0.08424613450000
C        -1.79880962690000   -1.95153938200000   -0.09326951870000
C        -3.08530238360000   -1.92355162230000    0.24182517550000
H        -3.46927804980000    3.02567536430000    0.04191404800000
H        -1.75040827590000    3.09314507020000    0.66206177240000
H        -3.14920912150000    0.72433679340000   -0.68580491960000
H         0.42519889650000    2.16334740130000   -0.05842592000000
H         2.54986931110000    1.95166170100000    0.05720617370000
H        -1.32509739950000   -2.88371772650000   -0.37171215130000
H        -3.57476412030000   -1.02851124950000    0.58274193620000
H        -3.68513631210000   -2.81581208170000    0.20329235750000
$end

$rem
BASIS = 6-31G*
GUI = 2
METHOD = B3LYP
PRINT_ORBITALS false
MOLDEN_FORMAT false
--------------------------------------------------------------

             Standard Nuclear Orientation (Angstroms)
    I     Atom           X                Y                Z
 ----------------------------------------------------------------
    1      C      -2.3387045613    -2.6035336727    -0.1494135417
    2      C      -2.2073192632    -1.3401314110     0.2350356054
    3      C      -0.9885193084    -0.5682669444     0.1053856701
    4      C       0.3306170916    -1.0759100482     0.0574422104
    5      C       1.1746654234     0.0112976271     0.0184660979
    6      C       2.6422819145     0.1243218297    -0.0311950412
    7      O       3.2341718264     1.1663539631    -0.0453371662
    8      O       3.3017082827    -1.0541546466    -0.0598184504
    9      O       0.4506082706     1.1478341611     0.0370972194
   10      C      -0.8505666344     0.8177232109     0.0813668132
   11      C      -1.8001635903     1.9025648998     0.0830243845
   12      C      -3.0847756039     1.8178523402    -0.2497385018
   13      H      -3.2599916493    -3.1414021525    -0.0102729509
   14      H      -1.5406132371    -3.1414528164    -0.6326767860
   15      H      -3.0360516367    -0.8229435518     0.6987960302
   16      H       0.5948977590    -2.1153157734     0.0769205245
   17      H       2.7086326239    -1.8154038453    -0.0438426482
   18      H      -1.3657152450     2.8560154811     0.3533513423
   19      H      -3.5366027557     0.9003481743    -0.5828040041
   20      H      -3.7215557044     2.6843796747    -0.2172465112
 ----------------------------------------------------------------

    9    -573.3849551260      7.46e-06  Convergence criterion met
 Total energy in the final basis set =     -573.3849551260

                    Orbital Energies (a.u.)
 --------------------------------------------------------------

 Alpha MOs
 -- Occupied --
-19.2389 -19.1972 -19.1319 -10.3245 -10.2672 -10.2641 -10.2180 -10.2147
-10.2146 -10.2094 -10.2031 -10.1964  -1.1475  -1.1039  -1.0221  -0.8498
 -0.8242  -0.7802  -0.7537  -0.6620  -0.6546  -0.6190  -0.5984  -0.5699
 -0.5488  -0.5129  -0.4912  -0.4698  -0.4547  -0.4499  -0.4391  -0.4367
 -0.4313  -0.4066  -0.3880  -0.3796  -0.3710  -0.3361  -0.3205  -0.3130
 -0.2770  -0.2719  -0.2241

          Ground-State Mulliken Net Atomic Charges

     Atom                 Charge (a.u.)
  ----------------------------------------
      1 C                    -0.348199
      2 C                    -0.115712
      3 C                     0.075667
      4 C                    -0.252996
      5 C                     0.260768
      6 C                     0.550474
      7 O                    -0.441201
      8 O                    -0.579420
      9 O                    -0.451140
     10 C                     0.286480
     11 C                    -0.123203
     12 C                    -0.345683
     13 H                     0.151643
     14 H                     0.142126
     15 H                     0.145128
     16 H                     0.147828
     17 H                     0.416688
     18 H                     0.162118
     19 H                     0.159713
     20 H                     0.158922
  ----------------------------------------
  Sum of atomic charges =     0.000000

                    Cartesian Multipole Moments
 -----------------------------------------------------------------
    Charge (ESU x 10^10)
                 0.0000
    Dipole Moment (Debye)
         X      -4.5926      Y      -2.8918      Z       0.1520
       Tot       5.4293
    Quadrupole Moments (Debye-Ang)
        XX     -77.9855     XY      -9.5505     YY     -61.2125
        XZ       0.0960     YZ       1.1649     ZZ     -70.0137

 Total job time:  23.61s(wall), 23.53s(cpu)
        *  Thank you very much for using Q-Chem.  Have a nice day.  *
