 Q-Chem 5.2, Q-Chem, Inc., Pleasanton, CA (2019)
 Q-Chem 5.2.1 for Intel X86 EM64T Linux

User input:
--------------------------------------------------------------
$molecule
0 1
C         3.50155301440000   -1.13939691300000   -0.38949651350000
C         2.32995059010000   -1.38164268200000    0.18636965680000
C         1.14164136050000   -0.53627367410000    0.12177844030000
C        -0.11181899950000   -1.13076690590000    0.11864835840000
C        -1.28817868730000   -0.38341633780000    0.01637729940000
C        -2.62966704740000   -0.94322769770000   -0.00846791160000
C        -2.94250297610000   -2.23290427070000    0.03775827820000
C        -1.08656840350000    0.99647274990000   -0.06060447470000
F        -2.14594878470000    1.81679638580000   -0.17493230840000
N         0.07013215820000    1.60405702720000   -0.00910096510000
C         1.18280613060000    0.87830306390000    0.08260899410000
N         2.34076086770000    1.59157576790000    0.12393663910000
H         4.31755387320000   -1.83701753330000   -0.30461539160000
H         3.67681019960000   -0.27228390430000   -1.00301170490000
H         2.18976310830000   -2.30932340390000    0.72903377130000
H        -0.17301870810000   -2.20694634100000    0.17845992160000
H        -3.42068797720000   -0.20756519010000   -0.07294350000000
H        -2.20290794130000   -3.01287710610000    0.09894587150000
H        -3.96822067680000   -2.55695921770000    0.01404385820000
H         2.21972816240000    2.58010898220000    0.27552159800000
H         3.14854707990000    1.15368925130000    0.53515086390000
$end

$rem
BASIS = 6-31G*
GUI = 2
METHOD = B3LYP
PRINT_ORBITALS false
MOLDEN_FORMAT false
--------------------------------------------------------------

             Standard Nuclear Orientation (Angstroms)
    I     Atom           X                Y                Z
 ----------------------------------------------------------------
    1      C       3.3683105597     1.3231274343     0.4067521058
    2      C       2.1815096239     1.4867891199    -0.1656773577
    3      C       1.0581200841     0.5561868370    -0.1120588624
    4      C      -0.2353702062     1.0575377817    -0.1008797219
    5      C      -1.3539512606     0.2250604925    -0.0082927688
    6      C      -2.7326800384     0.6851160301     0.0241560094
    7      C      -3.1388304284     1.9490231009    -0.0049922105
    8      C      -1.0521134117    -1.1373314106     0.0504355027
    9      F      -2.0486892483    -2.0342035301     0.1540960850
   10      N       0.1457757964    -1.6581616587    -0.0092700467
   11      C       1.2024284998    -0.8520075692    -0.0915716217
   12      N       2.4092911426    -1.4782776529    -0.1424974633
   13      H       4.1311413596     2.0794876296     0.3309552588
   14      H       3.6070558182     0.4631202220     1.0087398443
   15      H       1.9734011154     2.4088244618    -0.6960263653
   16      H      -0.3749934444     2.1270759091    -0.1464708328
   17      H      -3.4678448525    -0.1070901680     0.0790429268
   18      H      -2.4581836585     2.7816218763    -0.0559982383
   19      H      -4.1854305239     2.1970277530     0.0231630134
   20      H       2.3605353810    -2.4709278025    -0.3070981543
   21      H       3.1825129343    -0.9772438284    -0.5480260965
 ----------------------------------------------------------------

    9    -557.6867016635      2.62e-06  Convergence criterion met
 Total energy in the final basis set =     -557.6867016635

                    Orbital Energies (a.u.)
 --------------------------------------------------------------

 Alpha MOs
 -- Occupied --
-24.7048 -14.3532 -14.3264 -10.2983 -10.2708 -10.2069 -10.2026 -10.2012
-10.1973 -10.1894 -10.1871 -10.1760  -1.2207  -0.9806  -0.9044  -0.8355
 -0.8042  -0.7524  -0.7276  -0.6548  -0.6433  -0.6006  -0.5640  -0.5533
 -0.5426  -0.4942  -0.4875  -0.4830  -0.4707  -0.4559  -0.4288  -0.4191
 -0.4113  -0.4010  -0.3804  -0.3747  -0.3503  -0.3393  -0.3121  -0.2833
 -0.2778  -0.2501  -0.2005

          Ground-State Mulliken Net Atomic Charges

     Atom                 Charge (a.u.)
  ----------------------------------------
      1 C                    -0.371384
      2 C                    -0.138312
      3 C                     0.144836
      4 C                    -0.228217
      5 C                     0.083411
      6 C                    -0.114001
      7 C                    -0.357865
      8 C                     0.444974
      9 F                    -0.267635
     10 N                    -0.541845
     11 C                     0.425940
     12 N                    -0.771448
     13 H                     0.146561
     14 H                     0.164004
     15 H                     0.138680
     16 H                     0.141899
     17 H                     0.143623
     18 H                     0.135612
     19 H                     0.144441
     20 H                     0.343431
     21 H                     0.333297
  ----------------------------------------
  Sum of atomic charges =     0.000000

                    Cartesian Multipole Moments
 -----------------------------------------------------------------
    Charge (ESU x 10^10)
                 0.0000
    Dipole Moment (Debye)
         X       2.4457      Y       1.5129      Z      -1.0093
       Tot       3.0478
    Quadrupole Moments (Debye-Ang)
        XX     -59.9815     XY      -4.2512     YY     -66.9450
        XZ      -2.3154     YZ       0.6195     ZZ     -71.1089

 Total job time:  25.75s(wall), 25.66s(cpu)
        *  Thank you very much for using Q-Chem.  Have a nice day.  *
