 Q-Chem 5.2, Q-Chem, Inc., Pleasanton, CA (2019)
 Q-Chem 5.2.1 for Intel X86 EM64T Linux

User input:
--------------------------------------------------------------
$molecule
0 1
C        -3.69027612070000    0.50529221950000    0.06736855860000
C        -2.45208932250000    0.97472212710000   -0.02366182010000
C        -1.21951013640000    0.19456620530000   -0.02022860170000
C        -1.20186690690000   -1.20080179610000   -0.01256999840000
C        -0.00001720160000   -1.88340693750000   -0.00933588020000
C         1.20182607580000   -1.20078291200000   -0.01114772330000
C         1.21948363740000    0.19458794040000   -0.01904599190000
C         2.45200056980000    0.97483034430000   -0.02157185710000
C         3.69045986560000    0.50521154820000    0.06525094900000
C        -0.00001774530000    0.86788466510000   -0.02785532750000
H        -4.54080108410000    1.16533370320000    0.05795935500000
H        -3.91216281160000   -0.54421656580000    0.15687495630000
H        -2.30427586270000    2.04530548610000   -0.10322714220000
H        -2.12739348320000   -1.75488131600000   -0.01527646740000
H        -0.00000418370000   -2.96417338870000   -0.00680025750000
H         2.12733017300000   -1.75489475180000   -0.01236499240000
H         2.30389034140000    2.04574001600000   -0.09653171860000
H         3.91270570010000   -0.54461457650000    0.15034922830000
H         4.54083094000000    1.16545991600000    0.05754027520000
H        -0.00003291790000    1.95005548710000   -0.03601496740000
$end

$rem
BASIS = 6-31G*
GUI = 2
METHOD = B3LYP
PRINT_ORBITALS false
MOLDEN_FORMAT false
--------------------------------------------------------------

             Standard Nuclear Orientation (Angstroms)
    I     Atom           X                Y                Z
 ----------------------------------------------------------------
    1      C       3.6902781577     0.4993796159    -0.0675041252
    2      C       2.4520914997     0.9690373876     0.0223451517
    3      C       1.2195109278     0.1888775361     0.0208486995
    4      C       1.2018652316    -1.2065051982     0.0166712173
    5      C       0.0000143156    -1.8891141312     0.0151307298
    6      C      -1.2018277399    -1.2064855572     0.0152301448
    7      C      -1.2194828366     0.1889006893     0.0196470090
    8      C      -2.4519983760     0.9691491742     0.0202166613
    9      C      -3.6904578450     0.4993174479    -0.0654439088
   10      C       0.0000196964     0.8622151123     0.0267860574
   11      H       4.5408042428     1.1594409967    -0.0597350197
   12      H       3.9121636463    -0.5503496057    -0.1543901452
   13      H       2.3042793578     2.0398161831     0.0992381272
   14      H       2.1273907835    -1.7605778992     0.0207672450
   15      H      -0.0000006393    -2.9698835448     0.0152914659
   16      H      -2.1273328498    -1.7605909779     0.0178226153
   17      H      -2.3038867931     2.0402422615     0.0925056853
   18      H      -3.9127049167    -0.5507173190    -0.1479244978
   19      H      -4.5408277841     1.1595845211    -0.0593871151
   20      H       0.0000367647     1.9444029234     0.0322458173
 ----------------------------------------------------------------

    8    -387.0459470540      5.47e-06  Convergence criterion met
 Total energy in the final basis set =     -387.0459470540

                    Orbital Energies (a.u.)
 --------------------------------------------------------------

 Alpha MOs
 -- Occupied --
-10.1941 -10.1940 -10.1896 -10.1896 -10.1877 -10.1860 -10.1858 -10.1857
-10.1792 -10.1792  -0.8664  -0.8039  -0.7771  -0.7373  -0.7179  -0.6364
 -0.6066  -0.5879  -0.5336  -0.5133  -0.4830  -0.4662  -0.4463  -0.4287
 -0.4224  -0.4038  -0.3817  -0.3785  -0.3608  -0.3431  -0.3348  -0.3167
 -0.2841  -0.2339  -0.2169

          Ground-State Mulliken Net Atomic Charges

     Atom                 Charge (a.u.)
  ----------------------------------------
      1 C                    -0.354301
      2 C                    -0.109015
      3 C                     0.181299
      4 C                    -0.181510
      5 C                    -0.130233
      6 C                    -0.181511
      7 C                     0.181351
      8 C                    -0.108977
      9 C                    -0.354354
     10 C                    -0.278360
     11 H                     0.144299
     12 H                     0.142683
     13 H                     0.126564
     14 H                     0.126544
     15 H                     0.129603
     16 H                     0.126533
     17 H                     0.126548
     18 H                     0.142684
     19 H                     0.144307
     20 H                     0.125844
  ----------------------------------------
  Sum of atomic charges =     0.000000

                    Cartesian Multipole Moments
 -----------------------------------------------------------------
    Charge (ESU x 10^10)
                 0.0000
    Dipole Moment (Debye)
         X       0.0002      Y      -0.0944      Z       0.0035
       Tot       0.0944
    Quadrupole Moments (Debye-Ang)
        XX     -53.5641     XY       0.0009     YY     -52.4890
        XZ       0.0024     YZ       0.3514     ZZ     -63.9904

 Total job time:  16.96s(wall), 16.89s(cpu)
        *  Thank you very much for using Q-Chem.  Have a nice day.  *
