 Q-Chem 5.4, Q-Chem, Inc., Pleasanton, CA (2021)
 Q-Chem 5.4.2 for Intel X86 EM64T Linux

User input:
--------------------------------------------------------------
$molecule
0 1
C           -3.58090245240000        2.93602824200000        0.05882760250000
C           -2.27511017860000        2.71294738140000       -0.02330122780000
C           -1.60778408810000        1.41545168520000       -0.01806456410000
C           -2.30127053620000        0.20540713880000       -0.00716365080000
C           -1.63025828550000       -1.00783132620000        0.00113704310000
C           -2.39308751430000       -2.29796580750000       -0.01140581570000
C           -0.24245866850000       -1.02007689440000       -0.00219628110000
C            0.48071716180000        0.17216490070000       -0.01484797630000
C            1.93505228090000        0.22554884390000       -0.01797161710000
C            2.79956605020000       -0.77729011620000        0.00542678830000
F            2.54627210240000       -2.08084108300000        0.03773091460000
F            4.12089757910000       -0.59847989680000       -0.00050278250000
C           -0.21615139410000        1.37876094550000       -0.02440553460000
H           -3.97837187500000        3.93638455110000        0.04895379730000
H           -4.30571933100000        2.14453572380000        0.14141512760000
H           -1.60422895270000        3.56051025120000       -0.09651051040000
H           -3.38032086150000        0.20519436780000       -0.00852713380000
H           -3.36340704520000       -2.18127820070000        0.46528992800000
H           -1.83850294830000       -3.08075475290000        0.50024620860000
H           -2.55843604740000       -2.62014074220000       -1.03995021000000
H            0.26935123030000       -1.96854481090000        0.00414066730000
H            2.37994813050000        1.21018700560000       -0.04114033340000
H            0.33627425250000        2.30784369200000       -0.03255284620000
$end

$rem
BASIS = 6-31G*
GUI = 2
METHOD = B3LYP
PRINT_ORBITALS false
MOLDEN_FORMAT false
$end
--------------------------------------------------------------

             Standard Nuclear Orientation (Angstroms)
    I     Atom           X                Y                Z
 ----------------------------------------------------------------
    1      C       4.3375717628     1.2344248124    -0.0590513870
    2      C       3.0549944588     1.5661103756     0.0220893791
    3      C       1.9145965588     0.6559903025     0.0175399218
    4      C       2.0513549500    -0.7319814353     0.0085019227
    5      C       0.9421218200    -1.5637364841     0.0008001436
    6      C       1.1093055042    -3.0531493297     0.0153509670
    7      C      -0.3288339528    -1.0062277084     0.0028569456
    8      C      -0.4999704501     0.3776725606     0.0136360847
    9      C      -1.8047262569     1.0223116611     0.0153553041
   10      C      -3.0042479335     0.4617517250    -0.0078358103
   11      F      -3.3073352371    -0.8311669384    -0.0385916227
   12      F      -4.1362847842     1.1663064644    -0.0033134829
   13      C       0.6301261374     1.1927750334     0.0226254307
   14      H       5.1100489723     1.9840819669    -0.0498161049
   15      H       4.6744498135     0.2153203935    -0.1401684355
   16      H       2.7902958629     2.6142483192     0.0938218052
   17      H       3.0355657375    -1.1743331477     0.0108677362
   18      H       2.0424428856    -3.3449326523    -0.4605607282
   19      H       0.2828795970    -3.5406152573    -0.4960271291
   20      H       1.1276709534    -3.4134517544     1.0443724780
   21      H      -1.1843506983    -1.6616952614    -0.0029999378
   22      H      -1.8070925211     2.1028217989     0.0371190102
   23      H       0.5069139969     2.2666507819     0.0293238431
 ----------------------------------------------------------------

    9    -624.8334279761      5.05e-06  Convergence criterion met
 Total energy in the final basis set =     -624.8334279761

                    Orbital Energies (a.u.)
 --------------------------------------------------------------

 Alpha MOs
 -- Occupied --
-24.7436 -24.7328 -10.3555 -10.2040 -10.2018 -10.1948 -10.1945 -10.1904
-10.1864 -10.1823 -10.1822 -10.1810 -10.1802  -1.2841  -1.2231  -0.8713
 -0.8141  -0.7960  -0.7567  -0.7239  -0.6910  -0.6477  -0.6243  -0.5921
 -0.5663  -0.5621  -0.5188  -0.5178  -0.5023  -0.4734  -0.4586  -0.4408
 -0.4398  -0.4311  -0.4246  -0.4191  -0.4094  -0.4058  -0.3837  -0.3744
 -0.3677  -0.3455  -0.3365  -0.3171  -0.2755  -0.2292  -0.2161

          Ground-State Mulliken Net Atomic Charges

     Atom                 Charge (a.u.)
  ----------------------------------------
      1 C                    -0.353978
      2 C                    -0.110577
      3 C                     0.185997
      4 C                    -0.240460
      5 C                     0.182649
      6 C                    -0.529004
      7 C                    -0.251917
      8 C                     0.204721
      9 C                    -0.296091
     10 C                     0.542127
     11 F                    -0.234744
     12 F                    -0.249888
     13 C                    -0.279597
     14 H                     0.144322
     15 H                     0.143455
     16 H                     0.125951
     17 H                     0.118091
     18 H                     0.157599
     19 H                     0.159682
     20 H                     0.168800
     21 H                     0.130282
     22 H                     0.158800
     23 H                     0.123779
  ----------------------------------------
  Sum of atomic charges =     0.000000

                    Cartesian Multipole Moments
 -----------------------------------------------------------------
    Charge (ESU x 10^10)
                 0.0000
    Dipole Moment (Debye)
         X       1.0121      Y      -0.0840      Z       0.0652
       Tot       1.0177
    Quadrupole Moments (Debye-Ang)
        XX     -74.3470     XY      -0.7238     YY     -67.0198
        XZ      -0.0985     YZ       0.0727     ZZ     -77.0362

 Total job time:  37.27s(wall), 36.59s(cpu)
        *  Thank you very much for using Q-Chem.  Have a nice day.  *
