 Q-Chem 5.4, Q-Chem, Inc., Pleasanton, CA (2021)
 Q-Chem 5.4.2 for Intel X86 EM64T Linux

User input:
--------------------------------------------------------------
$molecule
0 1
C           -3.57850583560000        2.93914641210000        0.04284296270000
C           -2.27561531530000        2.71301910130000       -0.07001075880000
C           -1.60811164960000        1.41599700920000       -0.03974374930000
C           -2.30266980380000        0.20635194510000        0.00191803740000
C           -1.63238733410000       -1.00572412400000        0.03338014640000
C           -2.38526622770000       -2.30141652650000        0.06313156860000
C           -0.24359538890000       -1.01858367170000        0.02291904610000
C            0.47975751490000        0.17186188110000       -0.02129617360000
C            1.93410325920000        0.22482547880000       -0.03510607160000
C            2.79833072330000       -0.77786993060000       -0.00203403950000
F            2.54472222380000       -2.08059060050000        0.05214583570000
F            4.11968650400000       -0.59979838840000       -0.01925831920000
C           -0.21712749310000        1.37868368780000       -0.05442189610000
H           -3.97686228480000        3.93868703560000        0.01031831430000
H           -4.29973436090000        2.15109489710000        0.17450727010000
H           -1.60742869280000        3.55731093140000       -0.19049047640000
H           -3.38170244850000        0.20843671720000        0.00493083680000
H           -3.43924255110000       -2.13728083000000        0.27176855390000
H           -1.97490655610000       -2.96471953700000        0.82192894370000
H           -2.29962257700000       -2.80483634130000       -0.89968113310000
H            0.26625379790000       -1.96787408680000        0.04781094910000
H            2.37909414960000        1.20875898010000       -0.07698295640000
H            0.33562964350000        2.30699710560000       -0.08782935120000
$end

$rem
BASIS = 6-31G*
GUI = 2
METHOD = B3LYP
PRINT_ORBITALS false
MOLDEN_FORMAT false
$end
--------------------------------------------------------------

             Standard Nuclear Orientation (Angstroms)
    I     Atom           X                Y                Z
 ----------------------------------------------------------------
    1      C       4.3384410578     1.2314904663    -0.0727599592
    2      C       3.0577067600     1.5633595133     0.0320056131
    3      C       1.9162069741     0.6547027336     0.0239657982
    4      C       2.0523737116    -0.7341051869     0.0162784896
    5      C       0.9432451597    -1.5642294095     0.0051213799
    6      C       1.0972245351    -3.0551270264     0.0118463467
    7      C      -0.3281711675    -1.0052052188     0.0019047381
    8      C      -0.4984786158     0.3779949397     0.0122834656
    9      C      -1.8026120038     1.0240208853     0.0102875062
   10      C      -3.0025208846     0.4643568753    -0.0090987415
   11      F      -3.3066037159    -0.8284534810    -0.0316572893
   12      F      -4.1340028512     1.1698608136    -0.0091347832
   13      C       0.6327439138     1.1924432939     0.0254883143
   14      H       5.1123288592     1.9796364831    -0.0585339362
   15      H       4.6721568666     0.2137678953    -0.1795578671
   16      H       2.7954574749     2.6102776438     0.1269011333
   17      H       3.0369616307    -1.1755242985     0.0240675328
   18      H       2.1255564826    -3.3435898327    -0.1897934902
   19      H       0.4505550790    -3.5096613956    -0.7360550653
   20      H       0.8122877799    -3.4552112424     0.9847380719
   21      H      -1.1830565644    -1.6615671275    -0.0069324225
   22      H      -1.8039991871     2.1046018471     0.0257329529
   23      H       0.5102540402     2.2663928384     0.0326240382
 ----------------------------------------------------------------

    9    -624.8334369570      5.05e-06  Convergence criterion met
 Total energy in the final basis set =     -624.8334369570

                    Orbital Energies (a.u.)
 --------------------------------------------------------------

 Alpha MOs
 -- Occupied --
-24.7437 -24.7329 -10.3556 -10.2041 -10.2018 -10.1947 -10.1945 -10.1903
-10.1864 -10.1824 -10.1822 -10.1810 -10.1800  -1.2842  -1.2232  -0.8713
 -0.8141  -0.7960  -0.7567  -0.7239  -0.6910  -0.6478  -0.6243  -0.5921
 -0.5664  -0.5621  -0.5187  -0.5179  -0.5024  -0.4734  -0.4583  -0.4410
 -0.4399  -0.4311  -0.4246  -0.4192  -0.4095  -0.4060  -0.3833  -0.3743
 -0.3680  -0.3456  -0.3363  -0.3170  -0.2755  -0.2291  -0.2162

          Ground-State Mulliken Net Atomic Charges

     Atom                 Charge (a.u.)
  ----------------------------------------
      1 C                    -0.353690
      2 C                    -0.111351
      3 C                     0.187095
      4 C                    -0.243811
      5 C                     0.183442
      6 C                    -0.529573
      7 C                    -0.249450
      8 C                     0.203550
      9 C                    -0.295590
     10 C                     0.542120
     11 F                    -0.234713
     12 F                    -0.249885
     13 C                    -0.279328
     14 H                     0.144256
     15 H                     0.143409
     16 H                     0.126056
     17 H                     0.118669
     18 H                     0.155710
     19 H                     0.162755
     20 H                     0.167564
     21 H                     0.130205
     22 H                     0.158796
     23 H                     0.123764
  ----------------------------------------
  Sum of atomic charges =     0.000000

                    Cartesian Multipole Moments
 -----------------------------------------------------------------
    Charge (ESU x 10^10)
                 0.0000
    Dipole Moment (Debye)
         X       0.9696      Y      -0.0881      Z       0.0437
       Tot       0.9746
    Quadrupole Moments (Debye-Ang)
        XX     -74.4357     XY      -0.6146     YY     -67.0064
        XZ      -0.1301     YZ       0.1711     ZZ     -77.0247

 Total job time:  45.38s(wall), 43.16s(cpu)
        *  Thank you very much for using Q-Chem.  Have a nice day.  *
