 Q-Chem 5.2, Q-Chem, Inc., Pleasanton, CA (2019)
 Q-Chem 5.2.1 for Intel X86 EM64T Linux

User input:
--------------------------------------------------------------
$molecule
0 1
C        -4.21483367390000   -0.27111455870000   -0.01292852270000
C        -3.31046407680000    0.69969449560000    0.02495304290000
C        -1.86213783090000    0.53452608540000    0.04945098120000
C        -1.21729995080000   -0.70144160960000    0.06013015180000
C         0.17278217560000   -0.77491750790000    0.06489815970000
C         0.86261382380000   -2.06219972430000    0.05125433290000
C         0.37279997780000   -3.16402384990000   -0.50214760580000
C         0.88235637520000    0.44228341940000    0.06715904470000
C         2.37061473350000    0.51348441120000    0.09340649870000
O         3.07498653950000   -0.20724300150000    0.74458311880000
O         2.90957442120000    1.48773037060000   -0.66599500620000
C         0.14058332630000    1.62488931020000    0.08179007490000
N        -1.17128643080000    1.67818766710000    0.06895197650000
H        -5.26816156030000   -0.05035219320000   -0.02755002470000
H        -3.95352199340000   -1.31573745760000   -0.02896608070000
H        -3.61966235810000    1.73580366880000    0.03865898710000
H        -1.79328759370000   -1.61153337190000    0.08315376410000
H         1.84092881050000   -2.06973931600000    0.50815505020000
H        -0.57937190340000   -3.18693106960000   -1.00737787080000
H         0.92448908950000   -4.08788358770000   -0.48904897020000
H         2.24662309720000    1.99130075870000   -1.15705758250000
H         0.63368114440000    2.59019167480000    0.13687981030000
$end

$rem
BASIS = 6-31G*
GUI = 2
METHOD = B3LYP
PRINT_ORBITALS false
MOLDEN_FORMAT false
--------------------------------------------------------------

             Standard Nuclear Orientation (Angstroms)
    I     Atom           X                Y                Z
 ----------------------------------------------------------------
    1      C       4.1658197249    -0.1973983115    -0.0065253895
    2      C       3.2518027975     0.7649087303    -0.0246310421
    3      C       1.8051599641     0.5858319104    -0.0508163903
    4      C       1.1726216327    -0.6560566772    -0.0847880653
    5      C      -0.2166666602    -0.7432651278    -0.0895299122
    6      C      -0.8936565861    -2.0373754833    -0.1001313032
    7      C      -0.3922356957    -3.1447854611     0.4312893823
    8      C      -0.9383020469     0.4666247281    -0.0674469115
    9      C      -2.4272256912     0.5234974583    -0.0907562495
   10      O      -3.1252059854    -0.1914531033    -0.7550512431
   11      O      -2.9748997309     1.4774279109     0.6879562892
   12      C      -0.2083344928     1.6566199716    -0.0599165440
   13      N       1.1029558075     1.7227204353    -0.0474158126
   14      H       5.2169194163     0.0335172889     0.0112754739
   15      H       3.9149202118    -1.2446861580    -0.0104750003
   16      H       3.5506739842     1.8041165389    -0.0185653034
   17      H       1.7575945078    -1.5597505121    -0.1260561585
   18      H      -1.8724123516    -2.0458005406    -0.5560715340
   19      H       0.5607405260    -3.1679969505     0.9349869110
   20      H      -0.9347339851    -4.0736657244     0.4008537500
   21      H      -2.3163780979     1.9779635626     1.1879996551
   22      H      -0.7110668121     2.6178505602    -0.0957629223
 ----------------------------------------------------------------

    9    -591.6410657263      6.98e-06  Convergence criterion met
 Total energy in the final basis set =     -591.6410657263

                    Orbital Energies (a.u.)
 --------------------------------------------------------------

 Alpha MOs
 -- Occupied --
-19.2017 -19.1406 -14.3398 -10.3283 -10.2443 -10.2424 -10.2329 -10.2222
-10.2103 -10.2012 -10.2003 -10.1991 -10.1981  -1.1115  -1.0290  -0.9678
 -0.8495  -0.8191  -0.7757  -0.7558  -0.6818  -0.6624  -0.6308  -0.5991
 -0.5789  -0.5525  -0.5236  -0.5002  -0.4707  -0.4635  -0.4593  -0.4489
 -0.4468  -0.4277  -0.4188  -0.4047  -0.3858  -0.3791  -0.3652  -0.3374
 -0.3211  -0.3159  -0.2885  -0.2662  -0.2594  -0.2503

          Ground-State Mulliken Net Atomic Charges

     Atom                 Charge (a.u.)
  ----------------------------------------
      1 C                    -0.341250
      2 C                    -0.090643
      3 C                     0.310997
      4 C                    -0.238020
      5 C                     0.151105
      6 C                    -0.131375
      7 C                    -0.333795
      8 C                    -0.034363
      9 C                     0.550623
     10 O                    -0.439468
     11 O                    -0.563819
     12 C                    -0.018090
     13 N                    -0.485117
     14 H                     0.157013
     15 H                     0.148641
     16 H                     0.151958
     17 H                     0.142826
     18 H                     0.193613
     19 H                     0.147399
     20 H                     0.158467
     21 H                     0.416437
     22 H                     0.146861
  ----------------------------------------
  Sum of atomic charges =     0.000000

                    Cartesian Multipole Moments
 -----------------------------------------------------------------
    Charge (ESU x 10^10)
                 0.0000
    Dipole Moment (Debye)
         X       3.2262      Y      -0.7149      Z       1.7163
       Tot       3.7236
    Quadrupole Moments (Debye-Ang)
        XX     -81.9435     XY      -4.6313     YY     -67.3801
        XZ      -3.4095     YZ       0.8897     ZZ     -75.7528

 Total job time:  34.07s(wall), 33.44s(cpu)
        *  Thank you very much for using Q-Chem.  Have a nice day.  *
