 Q-Chem 5.2, Q-Chem, Inc., Pleasanton, CA (2019)
 Q-Chem 5.2.1 for Intel X86 EM64T Linux

User input:
--------------------------------------------------------------
$molecule
0 1
C        -2.89723038950000   -1.52846273280000    0.71669696420000
C        -2.59669747970000   -0.36772621130000    0.14894309420000
C        -1.27028196330000    0.22977188350000    0.02702905630000
C        -1.19179661030000    1.61464162960000   -0.10023529300000
C         0.01654725390000    2.27678949240000   -0.24247250300000
C         0.06884744970000    3.76837561320000   -0.38392568110000
C         1.17733347020000    1.52322483130000   -0.21870903270000
C         1.15373273120000    0.13830836140000   -0.06615219040000
C         2.44664338590000   -0.53564098320000    0.08826669210000
C         2.69711930360000   -1.47510545110000    0.98932501010000
C        -0.08073092350000   -0.52309791980000    0.00605687060000
O        -0.19684270210000   -1.88978895800000    0.01886387250000
C         0.57410599050000   -2.63916630550000   -0.89493893010000
H        -3.91665291990000   -1.87483807190000    0.76635054710000
H        -2.14802288080000   -2.16423631180000    1.15111528210000
H        -3.39620600060000    0.25021159400000   -0.24414883640000
H        -2.10999316260000    2.18549042510000   -0.09708566740000
H        -0.83960526030000    4.14528691280000   -0.84774575350000
H         0.92415345650000    4.07087609670000   -0.98375137250000
H         0.16468159260000    4.23291172280000    0.59801651830000
H         2.13652942880000    2.01662259140000   -0.29430243260000
H         3.24883696650000   -0.15280383540000   -0.53175102970000
H         1.93141288980000   -1.83860737470000    1.65471010750000
H         3.67917050480000   -1.90213686020000    1.10559148180000
H        -0.08869493400000   -3.40068813580000   -1.31229032370000
H         1.41373078940000   -3.12946019710000   -0.39310932460000
H         0.96234718780000   -2.01671970810000   -1.70384252630000
$end

$rem
BASIS = 6-31G*
GUI = 2
METHOD = B3LYP
PRINT_ORBITALS false
MOLDEN_FORMAT false
--------------------------------------------------------------

             Standard Nuclear Orientation (Angstroms)
    I     Atom           X                Y                Z
 ----------------------------------------------------------------
    1      C       1.1580825450    -3.1090724774     0.5579597497
    2      C       0.0144058887    -2.6364458752     0.0798367951
    3      C      -0.4002908863    -1.2377671649     0.0253429581
    4      C      -1.7663142763    -0.9667119538    -0.0016672146
    5      C      -2.2626358728     0.3244872797    -0.0740241268
    6      C      -3.7386899083     0.5846370080    -0.1080839402
    7      C      -1.3555444670     1.3699368330    -0.0823580278
    8      C       0.0198511281     1.1525071446    -0.0291086036
    9      C       0.8754660426     2.3360075250     0.1009715214
   10      C       1.8995369219     2.4298941711     0.9374533778
   11      C       0.5070669687    -0.1624792831    -0.0270225222
   12      O       1.8421464872    -0.4650734605    -0.1135661611
   13      C       2.6274338711     0.2213763191    -1.0638683669
   14      H       1.3623291341    -4.1673310663     0.5639379658
   15      H       1.9195913423    -2.4665916968     0.9599075175
   16      H      -0.7336512756    -3.3323419373    -0.2830976645
   17      H      -2.4574179655    -1.7977514967     0.0250188280
   18      H      -4.2685139419    -0.2501634110    -0.5607121182
   19      H      -3.9596724645     1.4898909250    -0.6689117421
   20      H      -4.1177447088     0.7154974590     0.9060075072
   21      H      -1.7151619012     2.3894372259    -0.1048713296
   22      H       0.5663754903     3.2002481676    -0.4752679601
   23      H       2.1976612796     1.6031522766     1.5609892594
   24      H       2.4655031621     3.3404998077     1.0412698895
   25      H       3.2596109811    -0.5274850897    -1.5465291600
   26      H       3.2623172633     0.9714184755    -0.5826712159
   27      H       2.0113939738     0.7138908867    -1.8191300880
 ----------------------------------------------------------------

    8    -540.8695250279      9.43e-06  Convergence criterion met
 Total energy in the final basis set =     -540.8695250279

                    Orbital Energies (a.u.)
 --------------------------------------------------------------

 Alpha MOs
 -- Occupied --
-19.1652 -10.2392 -10.2270 -10.1900 -10.1894 -10.1872 -10.1851 -10.1799
-10.1785 -10.1785 -10.1775 -10.1772 -10.1654  -1.0549  -0.8608  -0.8012
 -0.7859  -0.7451  -0.7182  -0.7101  -0.6585  -0.6161  -0.6128  -0.5550
 -0.5447  -0.5119  -0.4871  -0.4813  -0.4546  -0.4431  -0.4396  -0.4328
 -0.4241  -0.4192  -0.4108  -0.3851  -0.3742  -0.3654  -0.3606  -0.3497
 -0.3401  -0.3236  -0.2967  -0.2861  -0.2609  -0.2179  -0.2075

          Ground-State Mulliken Net Atomic Charges

     Atom                 Charge (a.u.)
  ----------------------------------------
      1 C                    -0.338502
      2 C                    -0.120774
      3 C                     0.147745
      4 C                    -0.272068
      5 C                     0.196897
      6 C                    -0.528993
      7 C                    -0.255625
      8 C                     0.142598
      9 C                    -0.145696
     10 C                    -0.335499
     11 C                     0.212675
     12 O                    -0.520549
     13 C                    -0.204324
     14 H                     0.131642
     15 H                     0.163635
     16 H                     0.122999
     17 H                     0.119107
     18 H                     0.155623
     19 H                     0.155334
     20 H                     0.165885
     21 H                     0.117917
     22 H                     0.133078
     23 H                     0.159201
     24 H                     0.140323
     25 H                     0.154413
     26 H                     0.153992
     27 H                     0.148968
  ----------------------------------------
  Sum of atomic charges =     0.000000

                    Cartesian Multipole Moments
 -----------------------------------------------------------------
    Charge (ESU x 10^10)
                 0.0000
    Dipole Moment (Debye)
         X      -0.0995      Y       1.0366      Z      -0.8675
       Tot       1.3554
    Quadrupole Moments (Debye-Ang)
        XX     -70.0556     XY       2.0518     YY     -72.9364
        XZ      -0.6139     YZ      -0.6006     ZZ     -78.6700

 Total job time:  35.37s(wall), 35.26s(cpu)
        *  Thank you very much for using Q-Chem.  Have a nice day.  *
