 Q-Chem 5.2, Q-Chem, Inc., Pleasanton, CA (2019)
 Q-Chem 5.2.1 for Intel X86 EM64T Linux

User input:
--------------------------------------------------------------
$molecule
0 1
F        -5.31964550810000    1.11264692360000   -1.13575719920000
C        -4.09255347020000    0.71532741940000   -0.79801640110000
F        -3.24482168670000    1.71226800720000   -1.02232398310000
C        -3.83205393230000   -0.49168928610000   -0.31937925520000
C        -2.55221070130000   -1.04895559120000    0.09158052220000
C        -1.34803622140000   -0.36669440140000   -0.05290640890000
C        -0.14802748400000   -0.93962480710000    0.36442073800000
N         1.04847939790000   -0.23767126960000    0.22625602600000
C         2.23921522730000   -0.91841306250000   -0.05914452550000
C         2.24290745590000   -2.00611034140000   -0.93173624700000
C         3.42104603450000   -2.67249782010000   -1.20757783690000
C         4.61124670520000   -2.26303085770000   -0.62909656580000
C         4.61385437400000   -1.17899106640000    0.23332456070000
C         3.43956744350000   -0.51138213920000    0.52208423420000
C         1.06805805940000    1.15812238860000    0.36579940440000
C         0.28745819650000    1.78358797810000    1.33675663230000
C         0.31062498670000    3.15847672890000    1.46735468650000
C         1.11571811330000    3.92793240360000    0.64372971460000
C         1.89810102140000    3.31026903000000   -0.31789730030000
C         1.87480975570000    1.93657836870000   -0.46231725140000
C        -0.16053171060000   -2.21940579720000    0.92376897750000
C        -1.35290393480000   -2.90436151880000    1.05349526000000
C        -2.54285689050000   -2.33147617510000    0.64616027710000
H        -4.69219279290000   -1.13755469480000   -0.21549267300000
H        -1.32366540800000    0.61534455470000   -0.49576477000000
H         1.31818554850000   -2.31996277430000   -1.39368202350000
H         3.41054167810000   -3.51214077550000   -1.88695465790000
H         5.53025464750000   -2.78436056200000   -0.84971774290000
H         5.53649777670000   -0.85486811960000    0.69184773930000
H         3.44218219250000    0.32885841510000    1.20087387140000
H        -0.33357072070000    1.18457948900000    1.98680510720000
H        -0.29879313800000    3.63129147920000    2.22323720150000
H         1.13280790670000    5.00183544770000    0.75035204540000
H         2.52519716230000    3.90275399550000   -0.96767357190000
H         2.47838558110000    1.45689666530000   -1.21893829790000
H         0.76443358550000   -2.66528793490000    1.25706879670000
H        -1.35399729860000   -3.89305354240000    1.48770481910000
H        -3.46991781250000   -2.87270187860000    0.75861695810000
$end

$rem
BASIS = 6-31G*
GUI = 2
METHOD = B3LYP
PRINT_ORBITALS false
MOLDEN_FORMAT false
--------------------------------------------------------------

             Standard Nuclear Orientation (Angstroms)
    I     Atom           X                Y                Z
 ----------------------------------------------------------------
    1      F       5.5424231765    -0.0512276551    -0.9797779022
    2      C       4.2525028594     0.0929958725    -0.6748325725
    3      F       3.6136958503    -1.0296507251    -0.9821497143
    4      C       3.7557673987     1.2027313735    -0.1498717606
    5      C       2.3818080913     1.4900979970     0.2336495747
    6      C       1.3316479620     0.6058724948     0.0062689539
    7      C       0.0329421901     0.9230262743     0.4002346443
    8      N      -1.0062113903     0.0205486615     0.1785344643
    9      C      -2.2934277487     0.4839463844    -0.1232125752
   10      C      -2.4723791445     1.5986137376    -0.9417529866
   11      C      -3.7448503446     2.0497304746    -1.2341262061
   12      C      -4.8554663120     1.3958927907    -0.7262779346
   13      C      -4.6830579590     0.2842094614     0.0820257235
   14      C      -3.4145544829    -0.1695305122     0.3870709520
   15      C      -0.7690106223    -1.3603088227     0.2496963830
   16      C       0.0831948185    -1.8831398701     1.2211359696
   17      C       0.3132519463    -3.2436561965     1.2842285421
   18      C      -0.3069909961    -4.1021652474     0.3915606452
   19      C      -1.1597879695    -3.5878339428    -0.5710182893
   20      C      -1.3890556632    -2.2277080764    -0.6479571638
   21      C      -0.2119334231     2.1502109835     1.0206537081
   22      C       0.8266083612     3.0357108460     1.2329406033
   23      C       2.1151119704     2.7161901267     0.8485288434
   24      H       4.4762406203     1.9898403466     0.0208654912
   25      H       1.5054830549    -0.3377879286    -0.4840415004
   26      H      -1.6082892232     2.1030986190    -1.3490016433
   27      H      -3.8696933811     2.9129822186    -1.8712087295
   28      H      -5.8481666075     1.7495724378    -0.9597105649
   29      H      -5.5430775862    -0.2297795573     0.4854505218
   30      H      -3.2818344874    -1.0318767286     1.0238682536
   31      H       0.5601403216    -1.2163525148     1.9246761003
   32      H       0.9757465685    -3.6365165185     2.0412386201
   33      H      -0.1264579715    -5.1649106456     0.4454881546
   34      H      -1.6439186828    -4.2493578622    -1.2742257722
   35      H      -2.0470738870    -1.8269884571    -1.4051292218
   36      H      -1.2141448582     2.3982196125     1.3361286017
   37      H       0.6289520515     3.9820699211     1.7139681890
   38      H       2.9205769672     3.4125349559     1.0255704715
 ----------------------------------------------------------------

    9   -1025.5612371662      4.93e-06  Convergence criterion met
 Total energy in the final basis set =    -1025.5612371662

                    Orbital Energies (a.u.)
 --------------------------------------------------------------

 Alpha MOs
 -- Occupied --
-24.7421 -24.7319 -14.3647 -10.3547 -10.2274 -10.2254 -10.2248 -10.2045
-10.2009 -10.1882 -10.1864 -10.1863 -10.1857 -10.1857 -10.1834 -10.1833
-10.1831 -10.1830 -10.1828 -10.1827 -10.1817 -10.1812 -10.1807  -1.2831
 -1.2220  -0.9789  -0.8655  -0.8585  -0.8425  -0.8040  -0.7631  -0.7592
 -0.7447  -0.7447  -0.7362  -0.7093  -0.6467  -0.6334  -0.6265  -0.6059
 -0.6024  -0.6000  -0.5780  -0.5636  -0.5418  -0.5356  -0.5167  -0.5109
 -0.5021  -0.4843  -0.4802  -0.4652  -0.4548  -0.4472  -0.4386  -0.4381
 -0.4355  -0.4338  -0.4271  -0.4235  -0.4217  -0.4183  -0.4054  -0.3825
 -0.3733  -0.3712  -0.3687  -0.3593  -0.3563  -0.3516  -0.3424  -0.3406
 -0.3201  -0.2935  -0.2589  -0.2581  -0.2527  -0.2465  -0.2218  -0.1812

          Ground-State Mulliken Net Atomic Charges

     Atom                 Charge (a.u.)
  ----------------------------------------
      1 F                    -0.250169
      2 C                     0.546372
      3 F                    -0.231894
      4 C                    -0.303610
      5 C                     0.197627
      6 C                    -0.258670
      7 C                     0.301940
      8 N                    -0.654151
      9 C                     0.280204
     10 C                    -0.166793
     11 C                    -0.138411
     12 C                    -0.128070
     13 C                    -0.138169
     14 C                    -0.166063
     15 C                     0.277834
     16 C                    -0.163663
     17 C                    -0.136809
     18 C                    -0.127100
     19 C                    -0.138111
     20 C                    -0.164598
     21 C                    -0.174274
     22 C                    -0.137886
     23 C                    -0.197215
     24 H                     0.159000
     25 H                     0.157551
     26 H                     0.146207
     27 H                     0.129749
     28 H                     0.124726
     29 H                     0.129909
     30 H                     0.146384
     31 H                     0.145371
     32 H                     0.130227
     33 H                     0.125088
     34 H                     0.130005
     35 H                     0.146191
     36 H                     0.147450
     37 H                     0.130825
     38 H                     0.122995
  ----------------------------------------
  Sum of atomic charges =     0.000000

                    Cartesian Multipole Moments
 -----------------------------------------------------------------
    Charge (ESU x 10^10)
                 0.0000
    Dipole Moment (Debye)
         X      -0.7524      Y       0.6127      Z       0.4099
       Tot       1.0533
    Quadrupole Moments (Debye-Ang)
        XX    -125.7901     XY       2.8855     YY    -119.6971
        XZ       4.0893     YZ      -0.5110     ZZ    -129.4840

 Total job time:  121.67s(wall), 121.30s(cpu)
        *  Thank you very much for using Q-Chem.  Have a nice day.  *
