 Q-Chem 5.2, Q-Chem, Inc., Pleasanton, CA (2019)
 Q-Chem 5.2.1 for Intel X86 EM64T Linux

User input:
--------------------------------------------------------------
$molecule
0 1
C        -2.48291466810000    4.16199360550000    0.50375362120000
C        -2.89488043370000    2.90087777350000    0.53525817390000
C        -2.10108367390000    1.71653826470000    0.22397216930000
C        -2.73925939780000    0.47976622500000    0.16423948520000
C        -2.04294056400000   -0.68567612390000   -0.14461093000000
C        -2.68165115250000   -1.99454146640000   -0.23297054550000
C        -3.95358747600000   -2.27847765850000    0.01848342420000
C        -0.67234990310000   -0.60208270350000   -0.38622056370000
C        -0.01855703970000    0.61995260420000   -0.30325896640000
O         1.31631601300000    0.76726749420000   -0.58359150940000
C         2.20369724680000   -0.22605245970000   -0.26324752820000
C         3.32009876320000   -0.36495135170000   -1.08232204030000
C         4.28536680000000   -1.30580529360000   -0.77893354270000
C         4.14732832500000   -2.11465756410000    0.33691738550000
C         3.04237414600000   -1.96683495020000    1.15773862190000
C         2.07194496490000   -1.02540653250000    0.86759782050000
C        -0.72840029600000    1.77512675650000   -0.00722881450000
H        -3.14755034570000    4.97349825840000    0.74606562060000
H        -1.47945878840000    4.44105346260000    0.23256563120000
H        -3.92349029130000    2.69255312720000    0.80460353680000
H        -3.80110239090000    0.43404119240000    0.35009332880000
H        -2.01723972570000   -2.79615494720000   -0.53280453630000
H        -4.66929433790000   -1.53550753840000    0.32549091040000
H        -4.33005048050000   -3.28284856380000   -0.07319824610000
H        -0.11472902440000   -1.49133673870000   -0.64460414770000
H         3.41282442220000    0.27398431620000   -1.94672157830000
H         5.14787974200000   -1.41033860870000   -1.42024322710000
H         4.89986673110000   -2.85286462130000    0.56903808820000
H         2.93397955600000   -2.58484398800000    2.03687055700000
H         1.21794943430000   -0.90130639450000    1.51786027070000
H        -0.19050438700000    2.70756136170000    0.03954764090000
$end

$rem
BASIS = 6-31G*
GUI = 2
METHOD = B3LYP
PRINT_ORBITALS false
MOLDEN_FORMAT false
--------------------------------------------------------------

             Standard Nuclear Orientation (Angstroms)
    I     Atom           X                Y                Z
 ----------------------------------------------------------------
    1      C       3.8678811344    -2.9264303156     0.3586799033
    2      C       3.7739450434    -1.6029120915     0.3831133248
    3      C       2.5793881685    -0.8087342089     0.1148080730
    4      C       2.7000826762     0.5769217679     0.0384426619
    5      C       1.6029309018     1.3904393076    -0.2316528073
    6      C       1.6956968285     2.8428099996    -0.3360605568
    7      C       2.7754747676     3.5881918683    -0.1356700799
    8      C       0.3566411900     0.7933753571    -0.4164727955
    9      C       0.2169040115    -0.5843410733    -0.3161284559
   10      O      -0.9738954201    -1.2272365469    -0.5416416529
   11      C      -2.1565216798    -0.6400133135    -0.1765194056
   12      C      -3.2758117193    -0.9398730887    -0.9471050445
   13      C      -4.5113737941    -0.4307858551    -0.5960927209
   14      C      -4.6426394438     0.3795464284     0.5195016631
   15      C      -3.5304947909     0.6668347843     1.2922386407
   16      C      -2.2893890993     0.1592751678     0.9542418303
   17      C       1.3221527225    -1.3833499943    -0.0593237586
   18      H       4.7992707784    -3.4247583852     0.5664729655
   19      H       3.0337801315    -3.5660596920     0.1273990997
   20      H       4.6579525792    -1.0192911344     0.6109325006
   21      H       3.6727604409     1.0218495148     0.1801474174
   22      H       0.7658508978     3.3315859826    -0.6014126292
   23      H       3.7309185460     3.1731468518     0.1351791932
   24      H       2.7405310072     4.6595571847    -0.2348977482
   25      H      -0.5057966027     1.4039756823    -0.6441659150
   26      H      -3.1563191147    -1.5736741260    -1.8119987718
   27      H      -5.3754241251    -0.6650950123    -1.1999554078
   28      H      -5.6078632119     0.7807561363     0.7887925473
   29      H      -3.6269753703     1.2873004779     2.1710283414
   30      H      -1.4254535726     0.3723250551     1.5672472267
   31      H       1.1787294739    -2.4494546001     0.0023615703
 ----------------------------------------------------------------

    9    -693.3084480602      1.76e-06  Convergence criterion met
 Total energy in the final basis set =     -693.3084480602

                    Orbital Energies (a.u.)
 --------------------------------------------------------------

 Alpha MOs
 -- Occupied --
-19.1901 -10.2507 -10.2490 -10.1996 -10.1993 -10.1923 -10.1914 -10.1903
-10.1897 -10.1885 -10.1873 -10.1858 -10.1857 -10.1847 -10.1836 -10.1820
-10.1812  -1.0850  -0.8720  -0.8558  -0.8073  -0.7856  -0.7526  -0.7508
 -0.7295  -0.7214  -0.6415  -0.6377  -0.6146  -0.6099  -0.5709  -0.5429
 -0.5308  -0.5147  -0.4972  -0.4902  -0.4717  -0.4578  -0.4535  -0.4458
 -0.4265  -0.4260  -0.4233  -0.4039  -0.3958  -0.3805  -0.3761  -0.3691
 -0.3640  -0.3563  -0.3499  -0.3389  -0.3340  -0.3194  -0.2763  -0.2547
 -0.2407  -0.2222  -0.2142

          Ground-State Mulliken Net Atomic Charges

     Atom                 Charge (a.u.)
  ----------------------------------------
      1 C                    -0.351105
      2 C                    -0.112810
      3 C                     0.184173
      4 C                    -0.266969
      5 C                     0.186240
      6 C                    -0.113837
      7 C                    -0.351606
      8 C                    -0.258005
      9 C                     0.365242
     10 O                    -0.574254
     11 C                     0.350076
     12 C                    -0.175653
     13 C                    -0.132580
     14 C                    -0.129209
     15 C                    -0.134351
     16 C                    -0.174944
     17 C                    -0.246991
     18 H                     0.145539
     19 H                     0.146384
     20 H                     0.128109
     21 H                     0.124715
     22 H                     0.129384
     23 H                     0.144598
     24 H                     0.145747
     25 H                     0.151077
     26 H                     0.139370
     27 H                     0.132721
     28 H                     0.127090
     29 H                     0.133080
     30 H                     0.151130
     31 H                     0.137641
  ----------------------------------------
  Sum of atomic charges =     0.000000

                    Cartesian Multipole Moments
 -----------------------------------------------------------------
    Charge (ESU x 10^10)
                 0.0000
    Dipole Moment (Debye)
         X      -0.0911      Y       0.8105      Z       0.3865
       Tot       0.9025
    Quadrupole Moments (Debye-Ang)
        XX     -86.8997     XY      -1.6608     YY     -93.6035
        XZ       2.4846     YZ       1.6793     ZZ    -100.2495

 Total job time:  54.71s(wall), 54.55s(cpu)
        *  Thank you very much for using Q-Chem.  Have a nice day.  *
