 Q-Chem 5.2, Q-Chem, Inc., Pleasanton, CA (2019)
 Q-Chem 5.2.1 for Intel X86 EM64T Linux

User input:
--------------------------------------------------------------
$molecule
0 1
C         3.75616417810000   -0.04796079430000    0.62776660890000
C         2.79797631300000   -0.62817939900000   -0.08122881120000
C         1.38436886780000   -0.24933643260000   -0.11041471510000
C         0.44949120930000   -1.28257452900000   -0.14774831830000
C        -0.91907624930000   -1.07145587080000   -0.13323261070000
C        -1.83394715700000   -2.25827478130000   -0.19215488620000
C        -1.38435352470000    0.24934995130000   -0.11032836310000
C        -2.79795762460000    0.62820134960000   -0.08113129020000
C        -3.75623173120000    0.04787233300000    0.62766433140000
C        -0.44947582960000    1.28259033860000   -0.14759472400000
C         0.91909490080000    1.07146900100000   -0.13316858150000
C         1.83395713910000    2.25830035340000   -0.19199387600000
H         4.76799107130000   -0.41767430260000    0.61029409030000
H         3.57006742040000    0.79233056370000    1.27307347390000
H         3.03767141510000   -1.50878696470000   -0.66683882240000
H         0.81445676780000   -2.30103481990000   -0.17227593210000
H        -1.35223173800000   -3.07554263090000   -0.72570538850000
H        -2.76660204630000   -2.00946488080000   -0.69277045160000
H        -2.06832482860000   -2.61172859140000    0.81220924120000
H        -3.03758367380000    1.50895941570000   -0.66654561300000
H        -3.57025248570000   -0.79258082830000    1.27279065870000
H        -4.76804399790000    0.41761676220000    0.61014627810000
H        -0.81443369380000    2.30105716470000   -0.17197657720000
H         1.35236250410000    3.07547650390000   -0.72579444830000
H         2.76674982180000    2.00944962560000   -0.69232520770000
H         2.06804843580000    2.61190487060000    0.81238508390000
$end

$rem
BASIS = 6-31G*
GUI = 2
METHOD = B3LYP
PRINT_ORBITALS false
MOLDEN_FORMAT false
--------------------------------------------------------------

             Standard Nuclear Orientation (Angstroms)
    I     Atom           X                Y                Z
 ----------------------------------------------------------------
    1      C       3.7071351378     0.6068193103    -0.6227007581
    2      C       2.6732142621     1.0378891161     0.0862693154
    3      C       1.3317946153     0.4527390735     0.1154682548
    4      C       0.2534594580     1.3352206641     0.1527580516
    5      C      -1.0684019384     0.9226305440     0.1382486076
    6      C      -2.1498269603     1.9599606366     0.1971208393
    7      C      -1.3317777687    -0.4527408844     0.1153974975
    8      C      -2.6731923971    -1.0379011094     0.0862134605
    9      C      -3.7072039576    -0.6067918576    -0.6226075112
   10      C      -0.2534428149    -1.3352217415     0.1527076648
   11      C       1.0684216431    -0.9226296459     0.1382752586
   12      C       2.1498390285    -1.9599686080     0.1971505974
   13      H       4.6526145187     1.1231050323    -0.6052415945
   14      H       3.6482663691    -0.2518423879    -1.2679736273
   15      H       2.7790796388     1.9443975740     0.6718437767
   16      H       0.4626716681     2.3966788507     0.1772447022
   17      H      -1.7952066586     2.8398786176     0.7306387955
   18      H      -3.0350279470     1.5750422581     0.6977449582
   19      H      -2.4342239369     2.2745254852    -0.8072581255
   20      H      -2.7789761941    -1.9445011163     0.6716633385
   21      H      -3.6484654412     0.2519605579    -1.2677678400
   22      H      -4.6526645425    -1.1231045732    -0.6050761016
   23      H      -0.4626468240    -2.3966832820     0.1771304814
   24      H       1.7953161963    -2.8397350954     0.7309837114
   25      H       3.0351623980    -1.5749491715     0.6974733733
   26      H       2.4339909095    -2.2748057367    -0.8072135178
 ----------------------------------------------------------------

    8    -465.6708685485      4.08e-06  Convergence criterion met
 Total energy in the final basis set =     -465.6708685485

                    Orbital Energies (a.u.)
 --------------------------------------------------------------

 Alpha MOs
 -- Occupied --
-10.1874 -10.1874 -10.1869 -10.1869 -10.1864 -10.1864 -10.1769 -10.1769
-10.1765 -10.1765 -10.1730 -10.1730  -0.8658  -0.8086  -0.7756  -0.7651
 -0.7182  -0.7149  -0.6520  -0.6213  -0.5951  -0.5675  -0.5278  -0.4891
 -0.4828  -0.4589  -0.4415  -0.4263  -0.4194  -0.4189  -0.4108  -0.3984
 -0.3886  -0.3879  -0.3691  -0.3511  -0.3457  -0.3302  -0.3226  -0.2962
 -0.2625  -0.2325  -0.2117

          Ground-State Mulliken Net Atomic Charges

     Atom                 Charge (a.u.)
  ----------------------------------------
      1 C                    -0.337682
      2 C                    -0.138628
      3 C                     0.113685
      4 C                    -0.254859
      5 C                     0.134404
      6 C                    -0.535672
      7 C                     0.113694
      8 C                    -0.138621
      9 C                    -0.337689
     10 C                    -0.254860
     11 C                     0.134399
     12 C                    -0.535672
     13 H                     0.141122
     14 H                     0.147368
     15 H                     0.133154
     16 H                     0.116991
     17 H                     0.152345
     18 H                     0.167414
     19 H                     0.160360
     20 H                     0.133150
     21 H                     0.147364
     22 H                     0.141122
     23 H                     0.116992
     24 H                     0.152347
     25 H                     0.167414
     26 H                     0.160357
  ----------------------------------------
  Sum of atomic charges =     0.000000

                    Cartesian Multipole Moments
 -----------------------------------------------------------------
    Charge (ESU x 10^10)
                 0.0000
    Dipole Moment (Debye)
         X       0.0000      Y       0.0000      Z       0.0064
       Tot       0.0064
    Quadrupole Moments (Debye-Ang)
        XX     -67.2207     XY       0.3904     YY     -67.4907
        XZ      -0.0001     YZ       0.0002     ZZ     -74.2443

 Total job time:  30.11s(wall), 29.02s(cpu)
        *  Thank you very much for using Q-Chem.  Have a nice day.  *
