 Q-Chem 5.2, Q-Chem, Inc., Pleasanton, CA (2019)
 Q-Chem 5.2.1 for Intel X86 EM64T Linux

User input:
--------------------------------------------------------------
$molecule
0 1
C         4.02158404260000    1.55636832160000   -0.27592388730000
C         3.72117864710000    0.26639444910000   -0.17779665500000
C         2.38365864530000   -0.30217499080000   -0.08635496060000
C         2.22207881670000   -1.69155774100000   -0.05697807860000
C         0.97231369520000   -2.26494338540000    0.01606730190000
C        -0.19481682830000   -1.49214183600000    0.09662603040000
C        -1.47365113270000   -2.18529781540000    0.18920140580000
C        -2.55155508740000   -1.77680911890000    0.84514642260000
C        -0.01841585950000   -0.11210031390000    0.05727054040000
S        -1.33269420310000    1.08271608520000    0.04163390180000
O        -2.06943686470000    1.15804745960000    1.25592159650000
O        -0.88895706900000    2.29012426090000   -0.56241645760000
F        -2.33662235970000    0.38741308210000   -1.06410434880000
C         1.22474385920000    0.47314124590000   -0.04053299780000
H         5.04405265560000    1.88599941050000   -0.34041034700000
H         3.27270882680000    2.32875094820000   -0.30056455700000
H         4.52098072380000   -0.46354211470000   -0.16538767500000
H         3.09539257670000   -2.32602756690000   -0.10493101710000
H         0.87902888020000   -3.34103895390000    0.02548512070000
H        -1.47779548720000   -3.15682265180000   -0.29149257520000
H        -2.59236182900000   -0.84399184900000    1.37651051370000
H        -3.43924898250000   -2.38609803210000    0.86982006010000
H         1.26573793250000    1.54762598820000   -0.09780657680000
$end

$rem
BASIS = 6-31G*
GUI = 2
METHOD = B3LYP
PRINT_ORBITALS false
MOLDEN_FORMAT false
--------------------------------------------------------------

             Standard Nuclear Orientation (Angstroms)
    I     Atom           X                Y                Z
 ----------------------------------------------------------------
    1      C       4.0384423295    -1.4109933561    -0.1177653988
    2      C       3.6766862063    -0.1336651534    -0.0794232930
    3      C       2.3127988324     0.3744254487    -0.0320131890
    4      C       2.0898793187     1.7514872511     0.0745848951
    5      C       0.8145198390     2.2670718852     0.1350023291
    6      C      -0.3210146260     1.4479143930     0.0611911913
    7      C      -1.6318561473     2.0829446816     0.1148906209
    8      C      -2.7339435539     1.6807500447    -0.5036937613
    9      C      -0.0830355318     0.0800051005    -0.0356121009
   10      S      -1.3403987018    -1.1746467915    -0.0423042597
   11      O      -2.1554212322    -1.1800067528    -1.2079237159
   12      O      -0.8043566815    -2.4068430327     0.4202596379
   13      F      -2.2944712822    -0.6283330735     1.1845869015
   14      C       1.1879633232    -0.4498556888    -0.0720642100
   15      H       5.0761697185    -1.6944453902    -0.1499217869
   16      H       3.3270297361    -2.2183814921    -0.1142026934
   17      H       4.4415305325     0.6329219444    -0.0779707364
   18      H       2.9362773318     2.4214350303     0.1226342875
   19      H       0.6745428753     3.3340261855     0.2287434369
   20      H      -1.6445911880     3.0075502435     0.6804759464
   21      H      -2.7711815196     0.7968655568    -1.1132202926
   22      H      -3.6466368002     2.2456032605    -0.4155228913
   23      H       1.2790634521    -1.5219383678    -0.1146991053
 ----------------------------------------------------------------

    9   -1034.8460567388      6.24e-06  Convergence criterion met
 Total energy in the final basis set =    -1034.8460567388

                    Orbital Energies (a.u.)
 --------------------------------------------------------------

 Alpha MOs
 -- Occupied --
-89.1500 -24.7212 -19.1724 -19.1702 -10.2486 -10.2348 -10.2240 -10.2232
-10.2180 -10.2164 -10.2090 -10.2045 -10.1983 -10.1899  -8.1746  -6.1412
 -6.1382  -6.1367  -1.2336  -1.1291  -1.0457  -0.9050  -0.8350  -0.8027
 -0.7865  -0.7410  -0.6992  -0.6591  -0.6273  -0.5997  -0.5861  -0.5452
 -0.5347  -0.5101  -0.4987  -0.4915  -0.4816  -0.4637  -0.4514  -0.4442
 -0.4347  -0.4280  -0.4147  -0.4022  -0.3961  -0.3813  -0.3759  -0.3684
 -0.3479  -0.3426  -0.3369  -0.3220  -0.2894  -0.2840  -0.2356

          Ground-State Mulliken Net Atomic Charges

     Atom                 Charge (a.u.)
  ----------------------------------------
      1 C                    -0.346032
      2 C                    -0.114845
      3 C                     0.185354
      4 C                    -0.182425
      5 C                    -0.179088
      6 C                     0.173250
      7 C                    -0.141714
      8 C                    -0.353926
      9 C                    -0.232411
     10 S                     1.222519
     11 O                    -0.465667
     12 O                    -0.461032
     13 F                    -0.319940
     14 C                    -0.222701
     15 H                     0.155491
     16 H                     0.158305
     17 H                     0.135515
     18 H                     0.145841
     19 H                     0.147140
     20 H                     0.140922
     21 H                     0.214141
     22 H                     0.151372
     23 H                     0.189932
  ----------------------------------------
  Sum of atomic charges =     0.000000

                    Cartesian Multipole Moments
 -----------------------------------------------------------------
    Charge (ESU x 10^10)
                 0.0000
    Dipole Moment (Debye)
         X       3.3052      Y       3.6398      Z       0.1505
       Tot       4.9189
    Quadrupole Moments (Debye-Ang)
        XX     -79.3875     XY      -5.0255     YY     -83.7899
        XZ      -0.9227     YZ       1.7009     ZZ     -91.7471

 Total job time:  39.00s(wall), 38.87s(cpu)
        *  Thank you very much for using Q-Chem.  Have a nice day.  *
