 Q-Chem 5.2, Q-Chem, Inc., Pleasanton, CA (2019)
 Q-Chem 5.2.1 for Intel X86 EM64T Linux

User input:
--------------------------------------------------------------
$molecule
0 1
C        -2.22224939450000   -2.25116410680000   -0.50621783380000
C        -1.26585541680000   -1.54883250300000    0.08838672170000
C        -1.16724240950000   -0.10128590400000    0.06192856910000
C        -2.27763321710000    0.76768128620000   -0.12107920480000
C        -1.96274371230000    2.07845635200000    0.00194948770000
S        -0.29731582920000    2.31934085650000    0.34562890680000
C        -0.00764484680000    0.60394549480000    0.31274118660000
C         1.34455204770000    0.14769599550000    0.51536377030000
C         1.92252397420000   -0.90012388840000   -0.05729392710000
F         1.39602577820000   -1.72870678590000   -0.94982603870000
F         3.18099515350000   -1.26088717360000    0.18603417960000
H        -2.25476577760000   -3.32414681610000   -0.43608405410000
H        -2.99124789700000   -1.78704033700000   -1.09996474690000
H        -0.49607162960000   -2.05849019470000    0.65226489300000
H        -3.27465115790000    0.41493480760000   -0.31110620660000
H        -2.60871794710000    2.92953160780000   -0.08443030980000
H         1.97507831820000    0.74573996140000    1.15764337610000
$end

$rem
BASIS = 6-31G*
GUI = 2
METHOD = B3LYP
PRINT_ORBITALS false
MOLDEN_FORMAT false
--------------------------------------------------------------

             Standard Nuclear Orientation (Angstroms)
    I     Atom           X                Y                Z
 ----------------------------------------------------------------
    1      C       0.3731882929     3.1255244658     0.0631906102
    2      C       0.0431849982     1.8990199754     0.4482857417
    3      C       0.8187957854     0.7068789149     0.1601133735
    4      C       2.2192768505     0.7100023699    -0.0852569571
    5      C       2.7460635269    -0.5296996789    -0.2196346349
    6      S       1.5617199380    -1.7626148349    -0.0551919305
    7      C       0.3125454093    -0.5767314165     0.1914163463
    8      C      -1.0377452246    -1.0504411974     0.3645353977
    9      C      -2.1467508526    -0.4579223869    -0.0584809985
   10      F      -2.2500175465     0.6712677748    -0.7474143097
   11      F      -3.3633964006    -0.9593417975     0.1451377873
   12      H      -0.2322997847     3.9758479765     0.3231945943
   13      H       1.2422000142     3.3237846589    -0.5408097967
   14      H      -0.8546339908     1.7417439029     1.0309193605
   15      H       2.8056091388     1.6092523449    -0.1316147385
   16      H       3.7660050936    -0.8035900329    -0.4034186028
   17      H      -1.1650266704    -2.0123215662     0.8402754997
 ----------------------------------------------------------------

    9    -906.2669378882      3.53e-06  Convergence criterion met
 Total energy in the final basis set =     -906.2669378882

                    Orbital Energies (a.u.)
 --------------------------------------------------------------

 Alpha MOs
 -- Occupied --
-88.9098 -24.7430 -24.7379 -10.3615 -10.2275 -10.2146 -10.2124 -10.1991
-10.1924 -10.1920 -10.1798  -7.9717  -5.9357  -5.9321  -5.9288  -1.2866
 -1.2263  -0.8946  -0.8106  -0.7939  -0.7289  -0.7155  -0.6435  -0.6045
 -0.5852  -0.5631  -0.5558  -0.5221  -0.5094  -0.4869  -0.4486  -0.4454
 -0.4411  -0.4257  -0.4203  -0.4060  -0.3907  -0.3827  -0.3653  -0.3431
 -0.2993  -0.2917  -0.2383  -0.2105

          Ground-State Mulliken Net Atomic Charges

     Atom                 Charge (a.u.)
  ----------------------------------------
      1 C                    -0.350567
      2 C                    -0.101440
      3 C                     0.155873
      4 C                    -0.122816
      5 C                    -0.349782
      6 S                     0.253053
      7 C                    -0.200577
      8 C                    -0.281965
      9 C                     0.560471
     10 F                    -0.227950
     11 F                    -0.244372
     12 H                     0.144680
     13 H                     0.141355
     14 H                     0.132963
     15 H                     0.143966
     16 H                     0.173679
     17 H                     0.173430
  ----------------------------------------
  Sum of atomic charges =     0.000000

                    Cartesian Multipole Moments
 -----------------------------------------------------------------
    Charge (ESU x 10^10)
                 0.0000
    Dipole Moment (Debye)
         X       1.0034      Y       0.0520      Z       0.2865
       Tot       1.0448
    Quadrupole Moments (Debye-Ang)
        XX     -64.9335     XY       0.7752     YY     -64.9031
        XZ      -2.6340     YZ      -0.4076     ZZ     -70.5930

 Total job time:  21.02s(wall), 20.94s(cpu)
        *  Thank you very much for using Q-Chem.  Have a nice day.  *
