 Q-Chem 5.2, Q-Chem, Inc., Pleasanton, CA (2019)
 Q-Chem 5.2.1 for Intel X86 EM64T Linux

User input:
--------------------------------------------------------------
$molecule
0 1
C        -3.26928726420000   -1.00396633790000    2.98992728420000
C        -2.59141153680000   -0.02021347630000    2.40477544580000
C        -2.23571372740000    0.02415786360000    1.01400470830000
C        -1.54049319670000    1.01578389600000    0.37055130350000
C        -1.34157528970000    0.78574962800000   -1.00328840860000
C        -0.56972293690000    1.72012641260000   -1.88266740840000
C         0.86483367430000    1.22579067370000   -2.11487031040000
C         1.67012498890000    1.16712539050000   -0.81977827980000
C         3.09114968290000    0.66359436740000   -1.05993805120000
C         3.95732868620000    0.68286583450000    0.19987337260000
C         3.48557318160000   -0.30434004960000    1.26653033440000
C         4.48244019520000   -0.46745641370000    2.41449741750000
C         4.63941585590000    0.79454351950000    3.25487996700000
C        -1.89284912810000   -0.40784124590000   -1.41957244350000
C        -1.88990922220000   -0.96492686090000   -2.74356169620000
C        -2.38166655040000   -2.15738067330000   -3.07079742450000
S        -2.66267974600000   -1.24064980350000   -0.09750821890000
H        -3.50795713890000   -0.98187889150000    4.03834209520000
H        -3.60519614350000   -1.86193320160000    2.43125957250000
H        -2.26116846950000    0.83552573100000    2.98081600170000
H        -1.18169983850000    1.89546260430000    0.87703506650000
H        -0.53624960840000    2.70419552140000   -1.41058545570000
H        -1.07296257100000    1.82692780230000   -2.84636581890000
H         1.35980331810000    1.89726540590000   -2.82080681210000
H         0.83480626050000    0.23029486220000   -2.56350401440000
H         1.16132772330000    0.50626763680000   -0.11664073300000
H         1.71184732540000    2.16431406920000   -0.37418515700000
H         3.56374385900000    1.29241170190000   -1.81947964510000
H         3.05007620980000   -0.35440413350000   -1.45516110340000
H         3.96330627150000    1.69465778340000    0.60906522140000
H         4.98361188810000    0.43104050380000   -0.07997039090000
H         3.33180218060000   -1.27936688020000    0.79704504430000
H         2.52747394540000    0.02151137850000    1.67547502100000
H         5.45534506850000   -0.75655767430000    2.00985247720000
H         4.13937038270000   -1.27993168100000    3.05979950150000
H         5.07186150490000    1.60165611850000    2.66947042820000
H         5.29276515420000    0.60459963760000    4.10364322250000
H         3.67304493950000    1.12140730650000    3.63318459230000
H        -1.44561792860000   -0.33786691510000   -3.50550006360000
H        -2.82424689440000   -2.80498241830000   -2.33204343390000
H        -2.35519052960000   -2.52155125400000   -4.08250616160000
$end

$rem
BASIS = 6-31G*
GUI = 2
METHOD = B3LYP
PRINT_ORBITALS false
MOLDEN_FORMAT false
--------------------------------------------------------------

             Standard Nuclear Orientation (Angstroms)
    I     Atom           X                Y                Z
 ----------------------------------------------------------------
    1      C       2.5003682191     3.8829431579    -0.0106338522
    2      C       1.8623582290     2.9969938191     0.7494483079
    3      C       1.9236906222     1.5715602993     0.5847953091
    4      C       1.2849226293     0.6243010517     1.3433211344
    5      C       1.5362862410    -0.7018800669     0.9458546224
    6      C       0.9037728774    -1.8854979689     1.6100074378
    7      C      -0.2936834219    -2.4134992849     0.8077906947
    8      C      -1.4175133005    -1.3858023959     0.7075679798
    9      C      -2.5983352026    -1.9163916685    -0.1015463801
   10      C      -3.7826882910    -0.9502473036    -0.1419828361
   11      C      -3.4778818853     0.3398307570    -0.9020337821
   12      C      -4.7212754337     1.1922683847    -1.1579669564
   13      C      -5.3309272012     1.7600791736     0.1185296748
   14      C       2.3821173644    -0.7713683068    -0.1411575726
   15      C       2.8599391877    -1.9485802096    -0.8113508342
   16      C       3.6237024881    -1.9492892795    -1.9010846111
   17      S       2.8666645339     0.8178479355    -0.6642912682
   18      H       2.4168077297     4.9412646752     0.1614068140
   19      H       3.1268787299     3.5699357314    -0.8295126328
   20      H       1.2365212722     3.3283849340     1.5690096717
   21      H       0.6482743609     0.8782600949     2.1735481471
   22      H       0.5652841505    -1.5935250529     2.6062759974
   23      H       1.6387806102    -2.6852896418     1.7260600351
   24      H      -0.6705490640    -3.3186451790     1.2903907433
   25      H       0.0367272952    -2.6823388326    -0.1980620839
   26      H      -1.0286535019    -0.4812464930     0.2379120275
   27      H      -1.7583410323    -1.1232239567     1.7123407232
   28      H      -2.9312116197    -2.8601816532     0.3390369650
   29      H      -2.2691488556    -2.1280442993    -1.1218643461
   30      H      -4.0818256085    -0.7150232991     0.8809458913
   31      H      -4.6239138441    -1.4516299622    -0.6277201500
   32      H      -3.0284820516     0.0809616846    -1.8642010605
   33      H      -2.7510966669     0.9348150605    -0.3460248063
   34      H      -5.4695901341     0.5918908940    -1.6808751097
   35      H      -4.4454295264     2.0205725189    -1.8152713248
   36      H      -5.7073579273     0.9658349645     0.7577638726
   37      H      -6.1594951391     2.4230706598    -0.1207620077
   38      H      -4.5876355842     2.3279389409     0.6742993479
   39      H       2.5547012722    -2.8868587386    -0.3668148719
   40      H       3.9376081973    -1.0304376272    -2.3682009633
   41      H       3.9553956629    -2.8645733444    -2.3583706032
 ----------------------------------------------------------------

    9   -1022.3126006555      1.71e-06  Convergence criterion met
 Total energy in the final basis set =    -1022.3126006555

                    Orbital Energies (a.u.)
 --------------------------------------------------------------

 Alpha MOs
 -- Occupied --
-88.8970 -10.2157 -10.2120 -10.1969 -10.1956 -10.1917 -10.1872 -10.1857
-10.1808 -10.1795 -10.1786 -10.1715 -10.1712 -10.1709 -10.1700 -10.1688
-10.1652  -7.9591  -5.9231  -5.9196  -5.9158  -0.8890  -0.8166  -0.8057
 -0.7926  -0.7727  -0.7568  -0.7249  -0.7084  -0.6833  -0.6486  -0.6271
 -0.6006  -0.5824  -0.5690  -0.5548  -0.5472  -0.5111  -0.4943  -0.4763
 -0.4654  -0.4534  -0.4449  -0.4410  -0.4289  -0.4248  -0.4142  -0.4133
 -0.3964  -0.3901  -0.3822  -0.3795  -0.3741  -0.3659  -0.3571  -0.3519
 -0.3472  -0.3348  -0.3292  -0.3285  -0.3211  -0.3185  -0.3132  -0.3047
 -0.2996  -0.2675  -0.2435  -0.1955

          Ground-State Mulliken Net Atomic Charges

     Atom                 Charge (a.u.)
  ----------------------------------------
      1 C                    -0.374465
      2 C                    -0.055347
      3 C                    -0.135182
      4 C                    -0.180300
      5 C                     0.154908
      6 C                    -0.348276
      7 C                    -0.254069
      8 C                    -0.262629
      9 C                    -0.254970
     10 C                    -0.255614
     11 C                    -0.251315
     12 C                    -0.249983
     13 C                    -0.443555
     14 C                    -0.201119
     15 C                    -0.055713
     16 C                    -0.376903
     17 S                     0.239330
     18 H                     0.146238
     19 H                     0.156801
     20 H                     0.137092
     21 H                     0.132975
     22 H                     0.141768
     23 H                     0.145451
     24 H                     0.129715
     25 H                     0.140960
     26 H                     0.156141
     27 H                     0.120985
     28 H                     0.123808
     29 H                     0.129350
     30 H                     0.130366
     31 H                     0.125065
     32 H                     0.127618
     33 H                     0.134206
     34 H                     0.128698
     35 H                     0.129293
     36 H                     0.146860
     37 H                     0.141372
     38 H                     0.139710
     39 H                     0.138889
     40 H                     0.156953
     41 H                     0.144885
  ----------------------------------------
  Sum of atomic charges =     0.000000

                    Cartesian Multipole Moments
 -----------------------------------------------------------------
    Charge (ESU x 10^10)
                 0.0000
    Dipole Moment (Debye)
         X      -0.7657      Y      -0.4714      Z       0.6925
       Tot       1.1349
    Quadrupole Moments (Debye-Ang)
        XX    -117.7258     XY      -0.8729     YY    -106.4985
        XZ      -2.8666     YZ       0.7233     ZZ    -110.9413

 Total job time:  79.73s(wall), 79.51s(cpu)
        *  Thank you very much for using Q-Chem.  Have a nice day.  *
