 Q-Chem 5.2, Q-Chem, Inc., Pleasanton, CA (2019)
 Q-Chem 5.2.1 for Intel X86 EM64T Linux

User input:
--------------------------------------------------------------
$molecule
0 1
C         4.49072388960000    1.10671490160000    0.12474927230000
C         3.31643764200000    1.71239371680000   -0.02720396660000
C         2.04895229790000    1.02951140270000   -0.05376543070000
C         0.78033576670000    1.52894086810000   -0.20326317580000
C        -0.09950436550000    0.41911701670000   -0.15779992520000
C        -1.55427434940000    0.54420801610000   -0.27989162870000
O        -2.12520576160000    1.60220219730000   -0.39324520670000
O        -2.18723052440000   -0.64154774950000   -0.26526969860000
C        -3.61097276240000   -0.60768343820000   -0.36054627850000
C        -4.25445302810000   -0.36224695550000    0.99685607350000
C         0.70625209910000   -0.70022299490000    0.02118628460000
C         0.37478550650000   -2.09443920910000    0.14544709810000
C         1.28177753490000   -3.05446039040000    0.31660291330000
O         1.99394256080000   -0.31778638270000    0.08212806980000
H         5.41347646100000    1.65876098180000    0.13837102020000
H         4.55768159490000    0.03841514470000    0.23978838240000
H         3.24851357550000    2.78471292370000   -0.14278670470000
H         0.49037129320000    2.55107875810000   -0.33157589270000
H        -3.89142935950000   -1.58492185270000   -0.75977310480000
H        -3.90061707400000    0.18028658970000   -1.06356138010000
H        -3.92857391500000   -1.11552652150000    1.71043435860000
H        -5.33554949130000   -0.40612399080000    0.90092826490000
H        -3.97293068710000    0.62054197910000    1.36678401930000
H        -0.67924475390000   -2.31589525170000    0.08885945300000
H         2.33357377560000   -2.83026111780000    0.37086701120000
H         0.99710785100000   -4.08770390710000    0.40620333240000
$end

$rem
BASIS = 6-31G*
GUI = 2
METHOD = B3LYP
PRINT_ORBITALS false
MOLDEN_FORMAT false
--------------------------------------------------------------

             Standard Nuclear Orientation (Angstroms)
    I     Atom           X                Y                Z
 ----------------------------------------------------------------
    1      C       4.6245708981     0.4752152281     0.2150178245
    2      C       3.5471190852     1.2499628604     0.1269922465
    3      C       2.1978768333     0.7554954959     0.0342547947
    4      C       1.0123009749     1.4383886525    -0.0618393807
    5      C      -0.0128796898     0.4623227920    -0.1266050143
    6      C      -1.4348459194     0.7994527366    -0.2327430884
    7      O      -1.8527630412     1.9323609741    -0.2379969701
    8      O      -2.2256420261    -0.2825739015    -0.3362994880
    9      C      -3.6298045091    -0.0423092438    -0.4249955642
   10      C      -4.2495767946     0.1531215534     0.9514259491
   11      C       0.6283281261    -0.7701406419    -0.0626673419
   12      C       0.1059920370    -2.1103115897    -0.0786843446
   13      C       0.8695574009    -3.1990519720    -0.0066993725
   14      O       1.9556672807    -0.5779357584     0.0340096466
   15      H       5.6144952019     0.8898553494     0.2823689730
   16      H       4.5419380323    -0.5981470787     0.2218639490
   17      H       3.6293566597     2.3274737791     0.1200114794
   18      H       0.8678654875     2.4985105836    -0.0861148113
   19      H      -4.0377030915    -0.9264106037    -0.9199868899
   20      H      -3.7993198886     0.8444573882    -1.0446166595
   21      H      -4.0395128100    -0.7055435124     1.5849783913
   22      H      -5.3251326104     0.2693506969     0.8536129915
   23      H      -3.8395019966     1.0454710075     1.4178235428
   24      H      -0.9677616725    -2.1767320282    -0.1552743375
   25      H       1.9415056460    -3.1293868154     0.0678590866
   26      H       0.4438426803    -4.1865845096    -0.0209714724
 ----------------------------------------------------------------

    9    -652.0317538370      6.67e-06  Convergence criterion met
 Total energy in the final basis set =     -652.0317538370

                    Orbital Energies (a.u.)
 --------------------------------------------------------------

 Alpha MOs
 -- Occupied --
-19.2263 -19.1909 -19.1310 -10.3159 -10.2597 -10.2488 -10.2425 -10.2012
-10.2011 -10.1984 -10.1914 -10.1894 -10.1855 -10.1798  -1.1328  -1.1068
 -1.0158  -0.8271  -0.8217  -0.7841  -0.7718  -0.7214  -0.6769  -0.6368
 -0.6179  -0.5928  -0.5762  -0.5495  -0.5070  -0.4925  -0.4803  -0.4742
 -0.4646  -0.4619  -0.4518  -0.4436  -0.4221  -0.4104  -0.4038  -0.3860
 -0.3831  -0.3748  -0.3689  -0.3659  -0.3391  -0.3262  -0.2994  -0.2950
 -0.2753  -0.2745  -0.2042

          Ground-State Mulliken Net Atomic Charges

     Atom                 Charge (a.u.)
  ----------------------------------------
      1 C                    -0.353978
      2 C                    -0.108025
      3 C                     0.329260
      4 C                    -0.223569
      5 C                    -0.001059
      6 C                     0.587583
      7 O                    -0.492503
      8 O                    -0.475714
      9 C                    -0.045108
     10 C                    -0.464272
     11 C                     0.293663
     12 C                    -0.110811
     13 C                    -0.345402
     14 O                    -0.491826
     15 H                     0.148082
     16 H                     0.156824
     17 H                     0.145374
     18 H                     0.163626
     19 H                     0.149843
     20 H                     0.170163
     21 H                     0.155709
     22 H                     0.151701
     23 H                     0.179634
     24 H                     0.170799
     25 H                     0.160179
     26 H                     0.149825
  ----------------------------------------
  Sum of atomic charges =     0.000000

                    Cartesian Multipole Moments
 -----------------------------------------------------------------
    Charge (ESU x 10^10)
                 0.0000
    Dipole Moment (Debye)
         X      -0.0993      Y      -1.5153      Z       0.1108
       Tot       1.5225
    Quadrupole Moments (Debye-Ang)
        XX     -68.7356     XY       6.3856     YY     -79.4035
        XZ       0.6985     YZ       0.4606     ZZ     -83.5242

 Total job time:  39.79s(wall), 39.66s(cpu)
        *  Thank you very much for using Q-Chem.  Have a nice day.  *
