 Q-Chem 5.2, Q-Chem, Inc., Pleasanton, CA (2019)
 Q-Chem 5.2.1 for Intel X86 EM64T Linux

User input:
--------------------------------------------------------------
$molecule
0 1
C        -4.14995901660000    1.21163592730000    0.08768715850000
C        -3.37040822770000    0.13957143460000    0.00937754010000
C        -1.91565805650000    0.20965987250000    0.04847317760000
C        -1.14724051780000   -0.95258458140000   -0.03218565980000
C         0.24127559500000   -0.88000990720000    0.00968472180000
C         1.04797477970000   -2.10579541450000    0.00185784430000
C         0.77001295360000   -3.17020477720000   -0.73861399790000
C         0.81617297070000    0.39726909080000    0.12057912640000
C         2.27851797400000    0.67180779850000    0.12652255850000
O         2.76965317200000    1.57109229340000    0.75045883040000
O         3.04164690610000   -0.12136122650000   -0.65331912650000
C        -0.04414339230000    1.49517667100000    0.21459340050000
N        -1.35173675640000    1.41380669220000    0.17714726690000
H        -5.22340137560000    1.14021538800000    0.05763776560000
H        -3.71575285940000    2.19155529370000    0.18608416820000
H        -3.78992070080000   -0.85297657520000   -0.08896772310000
H        -1.63045341780000   -1.91613990260000   -0.09144015140000
H         1.90631040410000   -2.11081009980000    0.66291579380000
H        -0.06482141550000   -3.18844503760000   -1.42012351870000
H         1.37804944270000   -4.05743132940000   -0.70270510370000
H         2.52704321720000   -0.79996293930000   -1.11301741140000
H         0.37574461820000    2.48705147050000    0.31747035520000
$end

$rem
BASIS = 6-31G*
GUI = 2
METHOD = B3LYP
PRINT_ORBITALS false
MOLDEN_FORMAT false
--------------------------------------------------------------

             Standard Nuclear Orientation (Angstroms)
    I     Atom           X                Y                Z
 ----------------------------------------------------------------
    1      C       4.2634991479    -0.4872031725    -0.1261649198
    2      C       3.3042883506     0.4225992683    -0.0023575280
    3      C       1.8868964785     0.0859707458     0.0181470408
    4      C       0.9225866686     1.0853070572     0.1567726501
    5      C      -0.4291248360     0.7576704922     0.1797399598
    6      C      -1.4400900899     1.7978697659     0.4017977699
    7      C      -1.3782255995     3.0142758505    -0.1226616081
    8      C      -0.7649006748    -0.6000038609     0.0447542668
    9      C      -2.1545683250    -1.1292498912    -0.0060610510
   10      O      -2.4590014140    -2.2027336036     0.4345930880
   11      O      -3.0699783300    -0.3546713650    -0.6238705302
   12      C       0.2788244705    -1.5231756517    -0.0682751472
   13      N       1.5495120413    -1.2024257126    -0.0854875336
   14      H       5.3058470676    -0.2195559696    -0.1387405539
   15      H       4.0130468707    -1.5300596007    -0.2166251336
   16      H       3.5380507045     1.4749996938     0.0905002340
   17      H       1.2253602142     2.1138546532     0.2827197874
   18      H      -2.2648034339     1.5247435827     1.0491097443
   19      H      -0.5813850029     3.3094581258    -0.7857218210
   20      H      -2.1324266005     3.7550588344     0.0788084805
   21      H      -2.6982637380     0.4791975663    -0.9450100979
   22      H       0.0447140355    -2.5758407701    -0.1565569672
 ----------------------------------------------------------------

    9    -591.6434072678      6.12e-06  Convergence criterion met
 Total energy in the final basis set =     -591.6434072678

                    Orbital Energies (a.u.)
 --------------------------------------------------------------

 Alpha MOs
 -- Occupied --
-19.1960 -19.1340 -14.3371 -10.3223 -10.2432 -10.2369 -10.2354 -10.2235
-10.2184 -10.2169 -10.2117 -10.1984 -10.1917  -1.1054  -1.0229  -0.9655
 -0.8576  -0.8152  -0.7846  -0.7578  -0.6751  -0.6651  -0.6269  -0.6105
 -0.5712  -0.5534  -0.5299  -0.4963  -0.4823  -0.4605  -0.4565  -0.4498
 -0.4393  -0.4291  -0.4187  -0.4059  -0.3892  -0.3861  -0.3669  -0.3394
 -0.3176  -0.3113  -0.2808  -0.2770  -0.2628  -0.2453

          Ground-State Mulliken Net Atomic Charges

     Atom                 Charge (a.u.)
  ----------------------------------------
      1 C                    -0.326163
      2 C                    -0.108682
      3 C                     0.331304
      4 C                    -0.245039
      5 C                     0.143191
      6 C                    -0.196880
      7 C                    -0.324370
      8 C                    -0.027580
      9 C                     0.528839
     10 O                    -0.436997
     11 O                    -0.574512
     12 C                     0.024445
     13 N                    -0.483537
     14 H                     0.148731
     15 H                     0.179712
     16 H                     0.129560
     17 H                     0.140923
     18 H                     0.179514
     19 H                     0.161520
     20 H                     0.165542
     21 H                     0.415682
     22 H                     0.174797
  ----------------------------------------
  Sum of atomic charges =     0.000000

                    Cartesian Multipole Moments
 -----------------------------------------------------------------
    Charge (ESU x 10^10)
                 0.0000
    Dipole Moment (Debye)
         X       1.9580      Y       5.1141      Z      -0.8138
       Tot       5.5363
    Quadrupole Moments (Debye-Ang)
        XX     -77.7588     XY      -8.5374     YY     -73.0562
        XZ       0.9637     YZ       0.9494     ZZ     -75.1840

 Total job time:  33.63s(wall), 33.51s(cpu)
        *  Thank you very much for using Q-Chem.  Have a nice day.  *
