 Q-Chem 5.2, Q-Chem, Inc., Pleasanton, CA (2019)
 Q-Chem 5.2.1 for Intel X86 EM64T Linux

User input:
--------------------------------------------------------------
$molecule
0 1
C        -2.50445557050000    2.62834852910000   -0.05321648480000
C        -2.86086808450000    1.35356533330000    0.04438965840000
C        -1.96502760710000    0.20420643630000    0.02349070490000
C        -2.50262624360000   -1.08719496970000   -0.00025703040000
N        -1.77450068570000   -2.18698028590000   -0.02293651940000
C        -0.46250648400000   -2.07155478820000   -0.02179381810000
C         0.20799092020000   -0.84217886490000    0.00363150780000
C         1.66165553650000   -0.84487101580000    0.00576279440000
C         2.48062575690000    0.19628108970000    0.00190945160000
F         2.15991674430000    1.48434104110000   -0.00417473950000
F         3.80564569510000    0.08224233790000    0.00211184400000
C        -0.57511139920000    0.31020850770000    0.02870147600000
H        -3.23813690620000    3.41554177260000   -0.03302437270000
H        -1.48044277480000    2.94266394700000   -0.16107748270000
H        -3.90960707360000    1.10067225910000    0.13889974120000
H        -3.57475175780000   -1.23819792450000   -0.00272285170000
H         0.09023936870000   -3.00190473570000   -0.04000494030000
H         2.14044730720000   -1.81337609110000    0.00732764860000
H        -0.11371010040000    1.28312255310000    0.05952649690000
$end

$rem
BASIS = 6-31G*
GUI = 2
METHOD = B3LYP
PRINT_ORBITALS false
MOLDEN_FORMAT false
--------------------------------------------------------------

             Standard Nuclear Orientation (Angstroms)
    I     Atom           X                Y                Z
 ----------------------------------------------------------------
    1      C       2.5251022668    -2.5132516960    -0.0518564787
    2      C       2.8251236490    -1.2239619335     0.0448291676
    3      C       1.8795969486    -0.1151284731     0.0233718317
    4      C       2.3598747395     1.1986508182    -0.0013477518
    5      N       1.5840805845     2.2653335923    -0.0245903320
    6      C       0.2784325422     2.0923190224    -0.0230788148
    7      C      -0.3373429877     0.8346614148     0.0033070872
    8      C      -1.7897190050     0.7734201695     0.0057608708
    9      C      -2.5621074777    -0.3027452086     0.0027770613
   10      F      -2.1850608710    -1.5754578349    -0.0025289442
   11      F      -3.8908607117    -0.2470911088     0.0031997993
   12      C       0.4956886432    -0.2821530281     0.0289625835
   13      H       3.2926984889    -3.2674022487    -0.0313087293
   14      H       1.5158830584    -2.8723711752    -0.1592816686
   15      H       3.8617439026    -0.9251268238     0.1389384498
   16      H       3.4243212357     1.3966580953    -0.0041523507
   17      H      -0.3146989449     2.9974466035    -0.0417803763
   18      H      -2.3106422047     1.7199316817     0.0067936130
   19      H       0.0775287038    -1.2743973001     0.0605323490
 ----------------------------------------------------------------

    9    -601.5525127462      5.62e-06  Convergence criterion met
 Total energy in the final basis set =     -601.5525127462

                    Orbital Energies (a.u.)
 --------------------------------------------------------------

 Alpha MOs
 -- Occupied --
-24.7540 -24.7429 -14.3296 -10.3669 -10.2236 -10.2207 -10.2179 -10.2126
-10.2076 -10.2067 -10.2000 -10.1899  -1.2951  -1.2339  -0.9532  -0.8418
 -0.8227  -0.7658  -0.7456  -0.6632  -0.6533  -0.6254  -0.5878  -0.5661
 -0.5404  -0.5284  -0.5210  -0.4943  -0.4756  -0.4498  -0.4482  -0.4396
 -0.4265  -0.4229  -0.4127  -0.4009  -0.3894  -0.3596  -0.3290  -0.3209
 -0.2548  -0.2497  -0.2301

          Ground-State Mulliken Net Atomic Charges

     Atom                 Charge (a.u.)
  ----------------------------------------
      1 C                    -0.348885
      2 C                    -0.116579
      3 C                     0.150878
      4 C                    -0.023102
      5 N                    -0.406163
      6 C                    -0.013562
      7 C                     0.165550
      8 C                    -0.302128
      9 C                     0.552051
     10 F                    -0.232823
     11 F                    -0.243527
     12 C                    -0.212493
     13 H                     0.150554
     14 H                     0.148189
     15 H                     0.135283
     16 H                     0.141008
     17 H                     0.140932
     18 H                     0.166672
     19 H                     0.148145
  ----------------------------------------
  Sum of atomic charges =     0.000000

                    Cartesian Multipole Moments
 -----------------------------------------------------------------
    Charge (ESU x 10^10)
                 0.0000
    Dipole Moment (Debye)
         X      -0.2195      Y      -1.2345      Z       0.0365
       Tot       1.2543
    Quadrupole Moments (Debye-Ang)
        XX     -64.6308     XY      -7.0650     YY     -68.0646
        XZ       0.2805     YZ       0.1527     ZZ     -69.1152

 Total job time:  22.28s(wall), 22.18s(cpu)
        *  Thank you very much for using Q-Chem.  Have a nice day.  *
