 Q-Chem 5.2, Q-Chem, Inc., Pleasanton, CA (2019)
 Q-Chem 5.2.1 for Intel X86 EM64T Linux

User input:
--------------------------------------------------------------
$molecule
0 1
C        -5.49535697250000   -1.15749596760000    0.02539552980000
C        -4.89349302350000    0.02609805910000   -0.01195411450000
C        -3.45762703690000    0.27084498250000   -0.00962268520000
C        -3.00114444400000    1.59112174720000   -0.01145686820000
C        -1.65034258080000    1.91081153960000   -0.00703942640000
C        -0.72920728100000    0.88248605170000   -0.00210514040000
C        -1.17537424870000   -0.45379625350000   -0.00264629880000
C        -2.51390404080000   -0.76748051580000   -0.00633059120000
C        -0.00000019760000   -1.36540044310000    0.00069945550000
O        -0.00000574150000   -2.57446692750000    0.00095844500000
C         1.17538178250000   -0.45380437220000    0.00346970770000
C         2.51390988710000   -0.76749413060000    0.00701270650000
C         3.45763809960000    0.27082761160000    0.00978215530000
C         4.89350081730000    0.02605944340000    0.01168322480000
C         5.49527769300000   -1.15747425760000   -0.02857193610000
C         3.00116877790000    1.59110863230000    0.01137576530000
C         1.65036623810000    1.91080113430000    0.00705569380000
C         0.72922635830000    0.88248038360000    0.00252571570000
H        -6.56879391820000   -1.23736390810000    0.02128849560000
H        -4.95512698010000   -2.08743217670000    0.06269356490000
H        -5.50212846560000    0.92186366240000   -0.04475053050000
H        -3.72811087990000    2.39151405640000   -0.01534835410000
H        -1.33468951580000    2.94350959540000   -0.00772786930000
H        -2.81845708460000   -1.80200139880000   -0.00853879650000
H         2.81847066400000   -1.80201079160000    0.00969693850000
H         5.50218399490000    0.92172475170000    0.04655553180000
H         4.95493474510000   -2.08731654220000   -0.06832074050000
H         6.56871446370000   -1.23737547000000   -0.02455774890000
H         3.72814401280000    2.39149893750000    0.01495027350000
H         1.33471381590000    2.94350020010000    0.00750970460000
$end

$rem
BASIS = 6-31G*
GUI = 2
METHOD = B3LYP
PRINT_ORBITALS false
MOLDEN_FORMAT false
--------------------------------------------------------------

             Standard Nuclear Orientation (Angstroms)
    I     Atom           X                Y                Z
 ----------------------------------------------------------------
    1      C       5.4953591299    -1.1665315806    -0.0248949594
    2      C       4.8934911823     0.0170612119     0.0124293523
    3      C       3.4576254058     0.2618079983     0.0099583384
    4      C       3.0011424316     1.5820846398     0.0117862773
    5      C       1.6503409806     1.9017743715     0.0072402652
    6      C       0.7292063436     0.8734489018     0.0021800547
    7      C       1.1753734517    -0.4628333546     0.0027259092
    8      C       2.5139029059    -0.7765175355     0.0065376989
    9      C      -0.0000001153    -1.3744376117    -0.0007682328
   10      O       0.0000056345    -2.5835040876    -0.0010643285
   11      C      -1.1753819406    -0.4628416268    -0.0036309186
   12      C      -2.5139096287    -0.7765314706    -0.0073206690
   13      C      -3.4576377065     0.2617902191    -0.0101549306
   14      C      -4.8935001856     0.0170219009    -0.0122106078
   15      C      -5.4952810065    -1.1665131224     0.0279465813
   16      C      -3.0011684198     1.5820713543    -0.0116612580
   17      C      -1.6503663770     1.9017639197    -0.0071929933
   18      C      -0.7292268136     0.8734431641    -0.0026002095
   19      H       6.5687956611    -1.2463994913    -0.0206804092
   20      H       4.9551330992    -2.0964667230    -0.0622768778
   21      H       5.5021231286     0.9128258966     0.0453156106
   22      H       3.7281083463     2.3824769347     0.0157768009
   23      H       1.3346876936     2.9344723599     0.0079280653
   24      H       2.8184558753    -1.8110384416     0.0087453540
   25      H      -2.8184699756    -1.8110480930    -0.0100678512
   26      H      -5.5021799204     0.9126881907    -0.0471177822
   27      H      -4.9549419956    -2.0963565480     0.0677222031
   28      H      -6.5687173485    -1.2464143673     0.0238199746
   29      H      -3.7281434034     2.3824616633    -0.0152856762
   30      H      -1.3347140631     2.9344630447    -0.0075829734
 ----------------------------------------------------------------

    9    -730.2342953974      3.98e-06  Convergence criterion met
 Total energy in the final basis set =     -730.2342953974

                    Orbital Energies (a.u.)
 --------------------------------------------------------------

 Alpha MOs
 -- Occupied --
-19.1426 -10.2728 -10.2065 -10.2061 -10.2061 -10.2061 -10.2027 -10.2027
-10.2014 -10.2014 -10.2012 -10.2012 -10.1958 -10.1958 -10.1943 -10.1943
-10.1850 -10.1850  -1.0431  -0.9005  -0.8681  -0.8293  -0.7908  -0.7825
 -0.7577  -0.7518  -0.7155  -0.6779  -0.6510  -0.6101  -0.6034  -0.5823
 -0.5688  -0.5491  -0.5198  -0.4956  -0.4939  -0.4662  -0.4598  -0.4563
 -0.4547  -0.4423  -0.4333  -0.4327  -0.4137  -0.4136  -0.4011  -0.3819
 -0.3800  -0.3751  -0.3593  -0.3567  -0.3534  -0.3483  -0.3303  -0.2955
 -0.2686  -0.2629  -0.2503  -0.2490  -0.2095

          Ground-State Mulliken Net Atomic Charges

     Atom                 Charge (a.u.)
  ----------------------------------------
      1 C                    -0.349126
      2 C                    -0.118701
      3 C                     0.183622
      4 C                    -0.204949
      5 C                    -0.190735
      6 C                     0.082751
      7 C                     0.045954
      8 C                    -0.242507
      9 C                     0.344467
     10 O                    -0.460196
     11 C                     0.045954
     12 C                    -0.242506
     13 C                     0.183607
     14 C                    -0.118702
     15 C                    -0.349114
     16 C                    -0.204941
     17 C                    -0.190736
     18 C                     0.082752
     19 H                     0.147757
     20 H                     0.150624
     21 H                     0.128471
     22 H                     0.135021
     23 H                     0.135871
     24 H                     0.153810
     25 H                     0.153809
     26 H                     0.128479
     27 H                     0.150620
     28 H                     0.147754
     29 H                     0.135019
     30 H                     0.135871
  ----------------------------------------
  Sum of atomic charges =     0.000000

                    Cartesian Multipole Moments
 -----------------------------------------------------------------
    Charge (ESU x 10^10)
                 0.0000
    Dipole Moment (Debye)
         X      -0.0002      Y       3.1830      Z       0.0011
       Tot       3.1830
    Quadrupole Moments (Debye-Ang)
        XX     -84.6748     XY      -0.0004     YY     -99.4619
        XZ       0.0595     YZ      -0.0079     ZZ    -107.4399

 Total job time:  62.10s(wall), 60.61s(cpu)
        *  Thank you very much for using Q-Chem.  Have a nice day.  *
