 Q-Chem 5.4, Q-Chem, Inc., Pleasanton, CA (2021)
 Q-Chem 5.4.2 for Intel X86 EM64T Linux

User input:
--------------------------------------------------------------
$molecule
0 1
C           -1.23145425290000        3.73683814720000        0.00869950840000
C           -1.98574199830000        2.64460392330000       -0.00181987510000
C           -1.52086741030000        1.26148686070000       -0.00110300630000
C           -2.46927759440000        0.23638510140000       -0.00354466000000
C           -2.10266259320000       -1.09912045990000       -0.00222953290000
C           -3.10862815260000       -2.20727142930000       -0.00326944440000
C           -0.74556712100000       -1.39087972660000        0.00132991780000
F           -0.37265638550000       -2.69190904700000        0.00260630350000
C            0.24482094660000       -0.40514174650000        0.00276942590000
C            1.63728779990000       -0.82522865880000        0.00565648330000
C            2.72121413930000       -0.06480782070000       -0.00061771400000
F            2.79045958660000        1.26170495580000       -0.01092111850000
F            3.95618607970000       -0.55894126130000        0.00265793750000
C           -0.17061170340000        0.92419029880000        0.00169468310000
H           -1.67375476050000        4.71810625450000        0.00743437860000
H           -0.15574083950000        3.70685944270000        0.01918726120000
H           -3.06339816880000        2.75274371620000       -0.01120840880000
H           -3.52004326450000        0.48827899780000       -0.00627891800000
H           -4.11965309220000       -1.81122250370000       -0.02910060030000
H           -2.99112539000000       -2.82228674590000        0.88814327960000
H           -2.95702081220000       -2.85259874670000       -0.86748442470000
H            1.81838148230000       -1.89046255720000        0.01298319530000
H            0.56780548610000        1.70602175960000        0.00279310270000
$end

$rem
BASIS = 6-31G*
GUI = 2
METHOD = B3LYP
PRINT_ORBITALS false
MOLDEN_FORMAT false
$end
--------------------------------------------------------------

             Standard Nuclear Orientation (Angstroms)
    I     Atom           X                Y                Z
 ----------------------------------------------------------------
    1      C      -1.1039412075    -3.7133799623    -0.0082174298
    2      C      -1.8636710897    -2.6249218708     0.0020660231
    3      C      -1.4057040392    -1.2395023815     0.0012147205
    4      C      -2.3592180070    -0.2191456975     0.0034071157
    5      C      -1.9992716657     1.1181724803     0.0019526635
    6      C      -3.0107545487     2.2212899443     0.0027253539
    7      C      -0.6436485795     1.4166996317    -0.0014894480
    8      F      -0.2772345485     2.7195734196    -0.0028997384
    9      C       0.3516462048     0.4359158448    -0.0026801970
   10      C       1.7419997912     0.8629456396    -0.0054632863
   11      C       2.8297064393     0.1079439953     0.0010398308
   12      F       2.9055691962    -1.2182053174     0.0115317748
   13      F       4.0621976238     0.6082334324    -0.0021601551
   14      C      -0.0571479554    -0.8954725301    -0.0014726185
   15      H      -1.5413397709    -4.6968427826    -0.0068699418
   16      H      -0.0283895690    -3.6780351666    -0.0185847792
   17      H      -2.9407753049    -2.7384366244     0.0113445657
   18      H      -3.4087139414    -0.4762794798     0.0060540581
   19      H      -4.0197935947     1.8202043680     0.0284934109
   20      H      -2.8962184505     2.8367631481    -0.8887574563
   21      H      -2.8624699094     2.8674828639     0.8668700414
   22      H       1.9177764950     1.9290689430    -0.0129140105
   23      H       0.6851615452    -1.6736096445    -0.0023791872
 ----------------------------------------------------------------

    9    -724.0688229993      5.38e-06  Convergence criterion met
 Total energy in the final basis set =     -724.0688229993

                    Orbital Energies (a.u.)
 --------------------------------------------------------------

 Alpha MOs
 -- Occupied --
-24.7468 -24.7364 -24.7138 -10.3595 -10.2700 -10.2136 -10.2049 -10.2035
-10.1979 -10.1930 -10.1920 -10.1919 -10.1878 -10.1806  -1.2881  -1.2270
 -1.2240  -0.8788  -0.8197  -0.8018  -0.7603  -0.7313  -0.6962  -0.6536
 -0.6276  -0.6132  -0.5795  -0.5562  -0.5394  -0.5253  -0.5215  -0.5025
 -0.4758  -0.4704  -0.4481  -0.4432  -0.4406  -0.4294  -0.4271  -0.4197
 -0.4112  -0.4052  -0.3988  -0.3755  -0.3745  -0.3515  -0.3435  -0.3181
 -0.2799  -0.2319  -0.2173

          Ground-State Mulliken Net Atomic Charges

     Atom                 Charge (a.u.)
  ----------------------------------------
      1 C                    -0.354565
      2 C                    -0.116630
      3 C                     0.199347
      4 C                    -0.265223
      5 C                     0.111880
      6 C                    -0.522646
      7 C                     0.241223
      8 F                    -0.289423
      9 C                     0.133319
     10 C                    -0.298244
     11 C                     0.550982
     12 F                    -0.234066
     13 F                    -0.245561
     14 C                    -0.272912
     15 H                     0.144800
     16 H                     0.146534
     17 H                     0.126938
     18 H                     0.127003
     19 H                     0.156838
     20 H                     0.172117
     21 H                     0.171940
     22 H                     0.174879
     23 H                     0.141469
  ----------------------------------------
  Sum of atomic charges =     0.000000

                    Cartesian Multipole Moments
 -----------------------------------------------------------------
    Charge (ESU x 10^10)
                 0.0000
    Dipole Moment (Debye)
         X      -1.4762      Y      -0.1286      Z      -0.0053
       Tot       1.4818
    Quadrupole Moments (Debye-Ang)
        XX     -74.4234     XY      -0.4800     YY     -75.8595
        XZ      -0.0389     YZ       0.0039     ZZ     -80.4184

 Total job time:  62.78s(wall), 52.66s(cpu)
        *  Thank you very much for using Q-Chem.  Have a nice day.  *
