 Q-Chem 5.2, Q-Chem, Inc., Pleasanton, CA (2019)
 Q-Chem 5.2.1 for Intel X86 EM64T Linux

User input:
--------------------------------------------------------------
$molecule
0 1
C        -2.89001324350000    2.59395091480000   -0.37005192020000
C        -2.65723547430000    1.45698004550000    0.27098019860000
C        -1.39719406610000    0.71590012830000    0.19905445540000
C        -0.21503161230000    1.41619461840000    0.12824676920000
C         0.99640598630000    0.71904760130000    0.04372846280000
N         2.23066631640000    1.22177026510000   -0.02484085480000
S         3.27442179970000    0.00087504140000   -0.10072962970000
N         2.23063550120000   -1.22122107210000   -0.04800676270000
C         0.99639266600000   -0.71986046600000    0.03008290490000
C        -0.21507659140000   -1.41843769140000    0.10141669600000
C        -1.39718854640000   -0.71955542340000    0.18552763010000
C        -2.65717023800000   -1.46200586500000    0.24366046340000
C        -2.89033222630000   -2.58581996990000   -0.42000352950000
H        -3.82960677940000    3.11127319530000   -0.27851870770000
H        -2.16089985960000    3.03982467960000   -1.02562136000000
H        -3.43635988970000    1.03066350930000    0.88789526320000
H        -0.20344070780000    2.49383291540000    0.15790695750000
H        -0.20357686540000   -2.49644826620000    0.11069481700000
H        -3.43570889600000   -1.04837941640000    0.86990146370000
H        -2.16168065020000   -3.01815139450000   -1.08509732250000
H        -3.82973244010000   -3.10510778480000   -0.33812150160000
$end

$rem
BASIS = 6-31G*
GUI = 2
METHOD = B3LYP
PRINT_ORBITALS false
MOLDEN_FORMAT false
--------------------------------------------------------------

             Standard Nuclear Orientation (Angstroms)
    I     Atom           X                Y                Z
 ----------------------------------------------------------------
    1      C      -2.7896537553    -2.5902147550     0.4085506302
    2      C      -2.5608919139    -1.4594138158    -0.2447239528
    3      C      -1.3004492367    -0.7177208556    -0.1876896054
    4      C      -0.1178502202    -1.4173450542    -0.1175489226
    5      C       1.0940689959    -0.7194614478    -0.0472022913
    6      N       2.3287454065    -1.2215457478     0.0184932755
    7      S       3.3729173677    -0.0000148170     0.0762588622
    8      N       2.3287893584     1.2215554201     0.0183684113
    9      C       1.0940997190     0.7195113182    -0.0472748964
   10      C      -0.1178087538     1.4174142208    -0.1177433527
   11      C      -1.3004003135     0.7177984192    -0.1878481389
   12      C      -2.5607395785     1.4596998913    -0.2452335944
   13      C      -2.7898090309     2.5897969567     0.4091213240
   14      H      -3.7297827747    -3.1083570761     0.3277877331
   15      H      -2.0564722652    -3.0298411498     1.0638021595
   16      H      -3.3438429659    -1.0389737159    -0.8608267147
   17      H      -0.1064132051    -2.4952174949    -0.1370058292
   18      H      -0.1063973097     2.4952870031    -0.1373691232
   19      H      -3.3431390396     1.0401462514    -0.8626580012
   20      H      -2.0570550341     3.0284266553     1.0655273730
   21      H      -3.7297141155     3.1083096256     0.3281256013
 ----------------------------------------------------------------

    9    -893.5047365287      7.30e-06  Convergence criterion met
 Total energy in the final basis set =     -893.5047365287

                    Orbital Energies (a.u.)
 --------------------------------------------------------------

 Alpha MOs
 -- Occupied --
-88.9705 -14.3582 -14.3582 -10.2344 -10.2340 -10.2150 -10.2146 -10.2010
-10.2010 -10.2010 -10.2010 -10.1910 -10.1910  -8.0267  -5.9919  -5.9860
 -5.9844  -1.0251  -0.8865  -0.8778  -0.8034  -0.8033  -0.7404  -0.7384
 -0.6669  -0.6299  -0.5995  -0.5756  -0.5719  -0.5156  -0.5047  -0.4795
 -0.4591  -0.4573  -0.4509  -0.4392  -0.4177  -0.3999  -0.3913  -0.3721
 -0.3650  -0.3527  -0.3306  -0.3147  -0.2979  -0.2922  -0.2883  -0.2395
 -0.2302

          Ground-State Mulliken Net Atomic Charges

     Atom                 Charge (a.u.)
  ----------------------------------------
      1 C                    -0.329289
      2 C                    -0.127163
      3 C                     0.092891
      4 C                    -0.211674
      5 C                     0.256566
      6 N                    -0.564577
      7 S                     0.580233
      8 N                    -0.564604
      9 C                     0.256572
     10 C                    -0.211622
     11 C                     0.092763
     12 C                    -0.127289
     13 C                    -0.329238
     14 H                     0.148474
     15 H                     0.152527
     16 H                     0.139700
     17 H                     0.152468
     18 H                     0.152479
     19 H                     0.139781
     20 H                     0.152536
     21 H                     0.148469
  ----------------------------------------
  Sum of atomic charges =     0.000000

                    Cartesian Multipole Moments
 -----------------------------------------------------------------
    Charge (ESU x 10^10)
                 0.0000
    Dipole Moment (Debye)
         X      -2.2530      Y      -0.0001      Z      -0.0530
       Tot       2.2536
    Quadrupole Moments (Debye-Ang)
        XX     -74.8803     XY      -0.0022     YY     -79.9134
        XZ       1.6659     YZ       0.0000     ZZ     -82.1432

 Total job time:  36.24s(wall), 36.11s(cpu)
        *  Thank you very much for using Q-Chem.  Have a nice day.  *
