 Q-Chem 5.2, Q-Chem, Inc., Pleasanton, CA (2019)
 Q-Chem 5.2.1 for Intel X86 EM64T Linux

User input:
--------------------------------------------------------------
$molecule
0 1
C         0.56515057630000   -3.18301201170000    0.08932422090000
C         0.44418098550000   -1.95741666690000    0.57941756540000
C        -0.62358762210000   -1.02126716890000    0.23459424630000
C        -1.91095758240000   -1.48948922430000   -0.02820922740000
C        -2.95895278100000   -0.62472747270000   -0.27397159050000
C        -2.75132457950000    0.74477579050000   -0.24637338510000
C        -1.47929371210000    1.20972982580000    0.01328399850000
F        -1.27086504880000    2.54442031320000    0.03374305950000
C        -0.39276014280000    0.36451347370000    0.23777906300000
C         0.91588205040000    0.97694072500000    0.46067957940000
C         2.06106158130000    0.57320331090000   -0.06271423470000
F         2.25219002350000   -0.44859364210000   -0.88695571300000
F         3.22421621040000    1.17983844880000    0.15653166670000
H         1.36641542270000   -3.83336569280000    0.39344623230000
H        -0.11033322790000   -3.57197697920000   -0.65365992280000
H         1.17178959060000   -1.59061756150000    1.29255267340000
H        -2.08880510840000   -2.55335356170000   -0.01282411080000
H        -3.94566667740000   -1.01252428680000   -0.47461536270000
H        -3.55094163130000    1.44655193880000   -0.42037584890000
H         0.94273627550000    1.88527429100000    1.04529409790000
$end

$rem
BASIS = 6-31G*
GUI = 2
METHOD = B3LYP
PRINT_ORBITALS false
MOLDEN_FORMAT false
--------------------------------------------------------------

             Standard Nuclear Orientation (Angstroms)
    I     Atom           X                Y                Z
 ----------------------------------------------------------------
    1      C      -0.6336865464     3.1145549237     0.0730651881
    2      C      -0.5134028596     1.8893163874     0.5642183630
    3      C       0.5621909697     0.9576912807     0.2316805784
    4      C       1.8506053117     1.4313067477    -0.0158994013
    5      C       2.9049718705     0.5709561777    -0.2495958259
    6      C       2.7026954374    -0.7994012262    -0.2247936295
    7      C       1.4296423541    -1.2696843858     0.0198210396
    8      F       1.2265052962    -2.6052303864     0.0374843989
    9      C       0.3370702881    -0.4290315190     0.2317949792
   10      C      -0.9715513405    -1.0469263046     0.4391874459
   11      C      -2.1121798028    -0.6477570086    -0.0974797940
   12      F      -2.2978605853     0.3734996344    -0.9236339112
   13      F      -3.2753062154    -1.2592578988     0.1079642529
   14      H      -1.4411394399     3.7614997246     0.3679511182
   15      H       0.0488411869     3.5065376843    -0.6618517883
   16      H      -1.2477933142     1.5192934140     1.2686835556
   17      H       2.0238628156     2.4958914548     0.0018491621
   18      H       3.8923575370     0.9628863177    -0.4385638567
   19      H       3.5071889301    -1.4978155201    -0.3896018318
   20      H      -1.0014982693    -1.9555456558     1.0232073153
 ----------------------------------------------------------------

    9    -684.7429687428      3.67e-06  Convergence criterion met
 Total energy in the final basis set =     -684.7429687428

                    Orbital Energies (a.u.)
 --------------------------------------------------------------

 Alpha MOs
 -- Occupied --
-24.7407 -24.7365 -24.7099 -10.3597 -10.2738 -10.2127 -10.2071 -10.2055
-10.1987 -10.1964 -10.1935 -10.1913 -10.1831  -1.2853  -1.2248  -1.2212
 -0.8801  -0.8142  -0.7971  -0.7452  -0.7329  -0.6530  -0.6362  -0.6107
 -0.5772  -0.5735  -0.5382  -0.5204  -0.5199  -0.5000  -0.4817  -0.4646
 -0.4631  -0.4422  -0.4409  -0.4340  -0.4304  -0.4149  -0.4037  -0.3791
 -0.3724  -0.3673  -0.3446  -0.2986  -0.2882  -0.2364  -0.2289

          Ground-State Mulliken Net Atomic Charges

     Atom                 Charge (a.u.)
  ----------------------------------------
      1 C                    -0.337795
      2 C                    -0.126891
      3 C                     0.117178
      4 C                    -0.184786
      5 C                    -0.126622
      6 C                    -0.194870
      7 C                     0.325246
      8 F                    -0.290381
      9 C                     0.019225
     10 C                    -0.324920
     11 C                     0.567904
     12 F                    -0.227377
     13 F                    -0.243897
     14 H                     0.146197
     15 H                     0.145486
     16 H                     0.140030
     17 H                     0.133916
     18 H                     0.138890
     19 H                     0.145784
     20 H                     0.177683
  ----------------------------------------
  Sum of atomic charges =     0.000000

                    Cartesian Multipole Moments
 -----------------------------------------------------------------
    Charge (ESU x 10^10)
                 0.0000
    Dipole Moment (Debye)
         X       1.0737      Y       0.9732      Z       0.3308
       Tot       1.4864
    Quadrupole Moments (Debye-Ang)
        XX     -67.8343     XY       0.3982     YY     -69.7510
        XZ      -2.7844     YZ      -0.8807     ZZ     -72.6847

 Total job time:  28.46s(wall), 28.37s(cpu)
        *  Thank you very much for using Q-Chem.  Have a nice day.  *
