 Q-Chem 5.2, Q-Chem, Inc., Pleasanton, CA (2019)
 Q-Chem 5.2.1 for Intel X86 EM64T Linux

User input:
--------------------------------------------------------------
$molecule
0 1
C         5.86869647110000   -0.65620769080000   -0.16677609810000
C         4.99796774940000    0.34517981910000   -0.21106510940000
C         3.54475005610000    0.24707426900000   -0.16889117970000
C         2.78505528820000    1.40846748090000   -0.32441570460000
C         1.40680749070000    1.35457484830000   -0.28761572710000
C         0.73149078720000    0.15314008470000   -0.10049603440000
C        -0.74265394380000    0.12450055050000   -0.07174598690000
C        -1.44578339600000   -0.69876715770000   -0.94614769350000
C        -2.82442679450000   -0.74524708580000   -0.95114886220000
C        -3.55715722640000    0.03942082410000   -0.05887710630000
C        -5.01316750290000    0.03487715320000   -0.00294841680000
C        -5.83597648170000   -0.70217628270000   -0.73960533250000
C        -2.85798571970000    0.86082536150000    0.82107719510000
C        -1.46803085860000    0.92464023060000    0.82952815360000
N        -0.82643018720000    1.79376308670000    1.68916600060000
C         1.48466047100000   -1.02530082910000    0.05833020120000
N         0.86505785210000   -2.25031151670000    0.20677271090000
C         2.87367247310000   -0.95574467840000    0.02749602680000
H         6.92972106170000   -0.47798993710000   -0.20796113710000
H         5.56922344230000   -1.68762967470000   -0.09364328350000
H         5.37344279910000    1.35824354640000   -0.29599134950000
H         3.28123773890000    2.35550928300000   -0.47934626580000
H         0.82829002570000    2.25700715220000   -0.42325562060000
H        -0.88612925370000   -1.30005177230000   -1.64821843650000
H        -3.32977389860000   -1.38991686960000   -1.65203970710000
H        -5.43588518870000    0.71479925420000    0.72777298570000
H        -5.48762380230000   -1.39847818520000   -1.48280946440000
H        -6.90428747270000   -0.63367009160000   -0.62414502440000
H        -3.40611341380000    1.47437365510000    1.52419463610000
H        -1.35508466020000    2.09524605650000    2.49125510210000
H         0.14872224300000    1.60864568870000    1.86380315710000
H        -0.09718019580000   -2.22986797020000    0.50563006740000
H         1.42349567200000   -2.98348006010000    0.61212653340000
H         3.43178300170000   -1.87023853820000    0.16387760160000
$end

$rem
BASIS = 6-31G*
GUI = 2
METHOD = B3LYP
PRINT_ORBITALS false
MOLDEN_FORMAT false
--------------------------------------------------------------

             Standard Nuclear Orientation (Angstroms)
    I     Atom           X                Y                Z
 ----------------------------------------------------------------
    1      C       5.8699111625    -0.6533764957     0.0620509246
    2      C       4.9963250572     0.2621254578    -0.3399571075
    3      C       3.5434473455     0.1829034474    -0.2617571624
    4      C       2.7802927518     1.2074838158    -0.8256617161
    5      C       1.4022534772     1.1676829533    -0.7686591326
    6      C       0.7305594396     0.1142073136    -0.1574896660
    7      C      -0.7434580948     0.0948267531    -0.1169165416
    8      C      -1.4454964611    -0.9907477575    -0.6320953499
    9      C      -2.8240101171    -1.0387821640    -0.6167391855
   10      C      -3.5576918839     0.0142673636    -0.0676087289
   11      C      -5.0136046835     0.0272294348    -0.0104729836
   12      C      -5.8353717649    -0.9283414996    -0.4282155450
   13      C      -2.8595985223     1.1001082811     0.4534296025
   14      C      -1.4698171404     1.1655737313     0.4349835383
   15      N      -0.8294559813     2.2884116119     0.9199328846
   16      C       1.4872412359    -0.9250806499     0.4156826651
   17      N       0.8712732192    -2.0144241827     0.9992131603
   18      C       2.8760091492    -0.8684964040     0.3585420268
   19      H       6.9303750436    -0.4999499118    -0.0433416617
   20      H       5.5734252634    -1.5888859796     0.5045234430
   21      H       5.3688475618     1.1764113418    -0.7869474885
   22      H       3.2736094581     2.0351274148    -1.3142652142
   23      H       0.8210270360     1.9584742409    -1.2206432747
   24      H      -0.8851387671    -1.8043347567    -1.0699705883
   25      H      -3.3285255248    -1.8946203109    -1.0353417081
   26      H      -5.4372066867     0.9247794878     0.4253059954
   27      H      -5.4861059402    -1.8458370195    -0.8695245809
   28      H      -6.9037087542    -0.8249108274    -0.3429469818
   29      H      -3.4084626628     1.9255294465     0.8878115410
   30      H      -1.3578369321     2.8588541962     1.5595603452
   31      H       0.1464518693     2.1811780217     1.1475151199
   32      H      -0.0906022424    -1.8891353910     1.2725884225
   33      H       1.4323213977    -2.5497891221     1.6413268233
   34      H       3.4368635105    -1.6703043209     0.8156336648
 ----------------------------------------------------------------

    9    -728.8072866042      1.85e-06  Convergence criterion met
 Total energy in the final basis set =     -728.8072866042

                    Orbital Energies (a.u.)
 --------------------------------------------------------------

 Alpha MOs
 -- Occupied --
-14.3361 -14.3354 -10.2231 -10.2230 -10.1882 -10.1875 -10.1853 -10.1847
-10.1837 -10.1829 -10.1787 -10.1783 -10.1759 -10.1749 -10.1747 -10.1739
-10.1709 -10.1700  -0.9262  -0.9173  -0.8459  -0.8416  -0.7983  -0.7748
 -0.7409  -0.7276  -0.7257  -0.6987  -0.6374  -0.6172  -0.6049  -0.5887
 -0.5628  -0.5571  -0.5210  -0.5165  -0.5119  -0.4931  -0.4769  -0.4631
 -0.4563  -0.4486  -0.4360  -0.4220  -0.4173  -0.4114  -0.4061  -0.3919
 -0.3810  -0.3783  -0.3646  -0.3511  -0.3444  -0.3400  -0.3280  -0.3221
 -0.3201  -0.2901  -0.2734  -0.2294  -0.2193  -0.2018  -0.1866

          Ground-State Mulliken Net Atomic Charges

     Atom                 Charge (a.u.)
  ----------------------------------------
      1 C                    -0.352417
      2 C                    -0.118798
      3 C                     0.187633
      4 C                    -0.214872
      5 C                    -0.196120
      6 C                     0.018941
      7 C                     0.017074
      8 C                    -0.196808
      9 C                    -0.201267
     10 C                     0.189140
     11 C                    -0.114564
     12 C                    -0.354190
     13 C                    -0.266291
     14 C                     0.304119
     15 N                    -0.814611
     16 C                     0.304460
     17 N                    -0.814477
     18 C                    -0.252815
     19 H                     0.141487
     20 H                     0.139295
     21 H                     0.125251
     22 H                     0.119032
     23 H                     0.147691
     24 H                     0.147928
     25 H                     0.118118
     26 H                     0.122662
     27 H                     0.142916
     28 H                     0.141470
     29 H                     0.111480
     30 H                     0.320953
     31 H                     0.333233
     32 H                     0.333073
     33 H                     0.321187
     34 H                     0.110087
  ----------------------------------------
  Sum of atomic charges =     0.000000

                    Cartesian Multipole Moments
 -----------------------------------------------------------------
    Charge (ESU x 10^10)
                 0.0000
    Dipole Moment (Debye)
         X      -0.0192      Y       0.2044      Z       2.6411
       Tot       2.6491
    Quadrupole Moments (Debye-Ang)
        XX    -101.1470     XY      -1.6343     YY     -96.5481
        XZ      -0.3793     YZ       0.2333     ZZ    -103.4799

 Total job time:  68.00s(wall), 67.69s(cpu)
        *  Thank you very much for using Q-Chem.  Have a nice day.  *
