 Q-Chem 5.4, Q-Chem, Inc., Pleasanton, CA (2021)
 Q-Chem 5.4.2 for Intel X86 EM64T Linux

User input:
--------------------------------------------------------------
$molecule
0 1
C            1.90412755260000       -3.82292991800000       -0.41434134170000
C            1.13039127870000       -3.20037371960000        0.46274002480000
C            0.73790145400000       -1.78908224380000        0.38756038210000
C           -0.59079437450000       -1.48150152650000        0.55126160450000
C           -1.09300044140000       -0.17280001830000        0.40563160920000
C           -2.52650619250000        0.05173146600000        0.56674946190000
C           -3.26854432780000        0.90580846370000       -0.12023303440000
F           -2.88824713760000        1.68762226560000       -1.11526502500000
F           -4.57672005560000        1.05345090040000        0.07890505650000
C           -0.18970579850000        0.82939216950000        0.13345446230000
F           -0.61173024820000        2.10677677970000        0.04176987270000
C            1.19405971900000        0.58818427970000        0.00584496370000
C            2.10193411160000        1.63997922030000       -0.23982108030000
C            3.44250652500000        1.39176526800000       -0.32599285700000
C            3.92720899140000        0.08892176210000       -0.14508894720000
C            3.06655250450000       -0.94968104160000        0.08537337870000
C            1.67328450250000       -0.74275559050000        0.14163289570000
H            2.12492690420000       -4.87307418330000       -0.32506926080000
H            2.32407153060000       -3.31550921010000       -1.26678920580000
H            0.67890992050000       -3.75963444900000        1.27313563230000
H           -1.29562562400000       -2.27371890120000        0.75863104100000
H           -3.04079447670000       -0.55677596960000        1.29534409380000
H            1.71437193670000        2.64124495450000       -0.35155505330000
H            4.13492676850000        2.19794897020000       -0.51588609080000
H            4.99157983010000       -0.09053351690000       -0.18163183380000
H            3.45319630960000       -1.94335627300000        0.24835755930000
$end

$rem
BASIS = 6-31G*
GUI = 2
METHOD = B3LYP
PRINT_ORBITALS false
MOLDEN_FORMAT false
$end
--------------------------------------------------------------

             Standard Nuclear Orientation (Angstroms)
    I     Atom           X                Y                Z
 ----------------------------------------------------------------
    1      C      -2.9866198385    -2.8302545669     0.7802365154
    2      C      -2.0526452130    -2.6171854623    -0.1350824022
    3      C      -1.1979098261    -1.4272682509    -0.2055687079
    4      C       0.1541865576    -1.6148508967    -0.3588159352
    5      C       1.0771701566    -0.5499532083    -0.3442263462
    6      C       2.4991129149    -0.8505653695    -0.4821509959
    7      C       3.4949735558    -0.2285761355     0.1289169537
    8      F       3.4145712619     0.7464777016     1.0170345822
    9      F       4.7724944728    -0.5623545798    -0.0422854409
   10      C       0.5760298778     0.7255121923    -0.2159406295
   11      F       1.4125415596     1.7824024972    -0.2540619121
   12      C      -0.8052073047     0.9896319930    -0.1077878937
   13      C      -1.2937812039     2.3098183579    -0.0115391436
   14      C      -2.6371928366     2.5477800247     0.0576675557
   15      C      -3.5419966460     1.4782363244     0.0079659875
   16      C      -3.0930992904     0.1882973072    -0.0762168610
   17      C      -1.7141911964    -0.1027239584    -0.1093543369
   18      H      -3.5559860224    -3.7439702444     0.8019308782
   19      H      -3.1997621432    -2.1140242219     1.5561749996
   20      H      -1.8274098011    -3.3876479959    -0.8624100549
   21      H       0.5417433424    -2.6190244988    -0.4527981550
   22      H       2.7669970159    -1.6789250554    -1.1206509688
   23      H      -0.5844903785     3.1234486841     0.0000456729
   24      H      -3.0084247261     3.5586848372     0.1331376812
   25      H      -4.6028029257     1.6798807059     0.0292836371
   26      H      -3.7993082557    -0.6245428888    -0.1395213135
 ----------------------------------------------------------------

    9    -838.3835003863      4.68e-06  Convergence criterion met
 Total energy in the final basis set =     -838.3835003863

                    Orbital Energies (a.u.)
 --------------------------------------------------------------

 Alpha MOs
 -- Occupied --
-24.7381 -24.7331 -24.7115 -10.3571 -10.2729 -10.2115 -10.2047 -10.2041
-10.2036 -10.2017 -10.1972 -10.1964 -10.1920 -10.1913 -10.1909 -10.1890
-10.1851  -1.2833  -1.2249  -1.2204  -0.8897  -0.8447  -0.8159  -0.7881
 -0.7558  -0.7465  -0.7198  -0.6560  -0.6328  -0.6217  -0.6103  -0.5758
 -0.5667  -0.5449  -0.5423  -0.5217  -0.5149  -0.4848  -0.4799  -0.4674
 -0.4639  -0.4518  -0.4402  -0.4360  -0.4341  -0.4295  -0.4156  -0.4119
 -0.4026  -0.3875  -0.3837  -0.3718  -0.3472  -0.3413  -0.3337  -0.3009
 -0.2753  -0.2671  -0.2369  -0.2061

          Ground-State Mulliken Net Atomic Charges

     Atom                 Charge (a.u.)
  ----------------------------------------
      1 C                    -0.333320
      2 C                    -0.143228
      3 C                     0.102634
      4 C                    -0.261399
      5 C                     0.116079
      6 C                    -0.318840
      7 C                     0.567852
      8 F                    -0.227994
      9 F                    -0.247580
     10 C                     0.234819
     11 F                    -0.284065
     12 C                     0.057804
     13 C                    -0.182888
     14 C                    -0.131831
     15 C                    -0.132386
     16 C                    -0.202936
     17 C                     0.091684
     18 H                     0.145500
     19 H                     0.155694
     20 H                     0.139962
     21 H                     0.132647
     22 H                     0.168120
     23 H                     0.145605
     24 H                     0.132972
     25 H                     0.130790
     26 H                     0.144302
  ----------------------------------------
  Sum of atomic charges =     0.000000

                    Cartesian Multipole Moments
 -----------------------------------------------------------------
    Charge (ESU x 10^10)
                 0.0000
    Dipole Moment (Debye)
         X      -1.8114      Y      -1.2014      Z      -0.3731
       Tot       2.2054
    Quadrupole Moments (Debye-Ang)
        XX     -91.5413     XY      -2.6274     YY     -85.8991
        XZ      -2.5850     YZ       1.8308     ZZ     -95.7369

 Total job time:  96.14s(wall), 88.23s(cpu)
        *  Thank you very much for using Q-Chem.  Have a nice day.  *
