 Q-Chem 5.2, Q-Chem, Inc., Pleasanton, CA (2019)
 Q-Chem 5.2.1 for Intel X86 EM64T Linux

User input:
--------------------------------------------------------------
$molecule
0 1
C         3.78848166630000   -0.04446219020000   -0.00067271180000
C         2.67329942430000    0.68239179990000    0.00018584860000
C         1.33615055190000    0.15409674720000    0.00035262430000
C         0.89826554470000   -1.14664095580000    0.00041921400000
C        -0.50030518660000   -1.28180397250000    0.00015862650000
C        -1.19681737020000   -2.60490134480000    0.00006159070000
C        -1.15049946340000   -0.06414289590000   -0.00007801360000
C        -2.56758350940000    0.16770151050000   -0.00060787590000
C        -3.14531990900000    1.36658056160000    0.00004800610000
S        -0.01175987230000    1.24981433340000    0.00010398480000
H         4.75836980040000    0.42043385120000   -0.00077708010000
H         3.77183296580000   -1.12045980140000   -0.00130893540000
H         2.73610888640000    1.76303404760000    0.00068860640000
H         1.56595450790000   -1.98974722050000    0.00062721170000
H        -0.46723036160000   -3.41047915790000    0.00162056080000
H        -1.82658817090000   -2.70954838490000   -0.88291480680000
H        -1.82912950730000   -2.70836558430000    0.88134270590000
H        -3.17644281630000   -0.72696841930000   -0.00162440160000
H        -2.56068427780000    2.27175878390000    0.00102016610000
H        -4.21490544790000    1.47912285640000   -0.00040038870000
$end

$rem
BASIS = 6-31G*
GUI = 2
METHOD = B3LYP
PRINT_ORBITALS false
MOLDEN_FORMAT false
--------------------------------------------------------------

             Standard Nuclear Orientation (Angstroms)
    I     Atom           X                Y                Z
 ----------------------------------------------------------------
    1      C       3.7961703153    -0.0131177747    -0.0006528052
    2      C       2.6830357438     0.7168682542     0.0001934137
    3      C       1.3444070590     0.1923341631     0.0003639887
    4      C       0.9028672656    -1.1071674567     0.0004468051
    5      C      -0.4960778971    -1.2383984073     0.0001846460
    6      C      -1.1963067001    -2.5595325809     0.0001035112
    7      C      -1.1428466256    -0.0189143778    -0.0000697366
    8      C      -2.5592733312     0.2169126840    -0.0006060909
    9      C      -3.1336372692     1.4174110870     0.0000324725
   10      S      -0.0004178566     1.2918365404     0.0000975469
   11      H       4.7673614912     0.4490499666    -0.0007610147
   12      H       3.7764969349    -1.0890643415    -0.0012747737
   13      H       2.7488827603     1.7973296744     0.0006819660
   14      H       1.5681835261    -1.9521473341     0.0006676113
   15      H      -0.4689871455    -3.3671581392     0.0016749404
   16      H      -1.8263670939    -2.6624205895    -0.8828730121
   17      H      -1.8289092770    -2.6612071988     0.8813844786
   18      H      -3.1706452452    -0.6760421541    -0.0016121964
   19      H      -2.5464593952     2.3209422708     0.0009940144
   20      H      -4.2029022122     1.5329596533    -0.0004199926
 ----------------------------------------------------------------

    9    -747.1206929688      4.35e-06  Convergence criterion met
 Total energy in the final basis set =     -747.1206929688

                    Orbital Energies (a.u.)
 --------------------------------------------------------------

 Alpha MOs
 -- Occupied --
-88.8998 -10.2160 -10.2104 -10.1975 -10.1958 -10.1950 -10.1866 -10.1843
-10.1816 -10.1786  -7.9617  -5.9256  -5.9222  -5.9187  -0.8885  -0.8064
 -0.7781  -0.7589  -0.7056  -0.6780  -0.6225  -0.5805  -0.5354  -0.5246
 -0.4832  -0.4591  -0.4512  -0.4303  -0.4224  -0.4110  -0.3924  -0.3795
 -0.3664  -0.3612  -0.3536  -0.3313  -0.3188  -0.2684  -0.2453  -0.1940

          Ground-State Mulliken Net Atomic Charges

     Atom                 Charge (a.u.)
  ----------------------------------------
      1 C                    -0.341742
      2 C                    -0.088694
      3 C                    -0.126679
      4 C                    -0.162553
      5 C                     0.157490
      6 C                    -0.529536
      7 C                    -0.198632
      8 C                    -0.056596
      9 C                    -0.375362
     10 S                     0.234597
     11 H                     0.146514
     12 H                     0.141966
     13 H                     0.137142
     14 H                     0.131342
     15 H                     0.159225
     16 H                     0.168187
     17 H                     0.168174
     18 H                     0.135938
     19 H                     0.154911
     20 H                     0.144307
  ----------------------------------------
  Sum of atomic charges =     0.000000

                    Cartesian Multipole Moments
 -----------------------------------------------------------------
    Charge (ESU x 10^10)
                -0.0000
    Dipole Moment (Debye)
         X      -0.0590      Y      -1.1253      Z      -0.0004
       Tot       1.1269
    Quadrupole Moments (Debye-Ang)
        XX     -59.8834     XY       0.9419     YY     -61.3035
        XZ       0.0016     YZ       0.0033     ZZ     -71.0063

 Total job time:  23.38s(wall), 23.28s(cpu)
        *  Thank you very much for using Q-Chem.  Have a nice day.  *
