 Q-Chem 5.2, Q-Chem, Inc., Pleasanton, CA (2019)
 Q-Chem 5.2.1 for Intel X86 EM64T Linux

User input:
--------------------------------------------------------------
$molecule
0 1
C        -1.73669077080000   -1.02469575420000    3.17968887620000
C        -1.10146919280000   -0.94190303980000    2.01831379510000
C        -1.61399550250000   -0.26704099740000    0.82694607190000
C        -2.98369067140000   -0.19683177780000    0.57740935650000
C        -3.47275973420000    0.40498346130000   -0.56549351930000
C        -2.59534933210000    0.94630296880000   -1.49107806020000
C        -1.23360887770000    0.87950274900000   -1.26405946490000
C        -0.72864013370000    0.27951723630000   -0.11505882160000
C         0.72860812540000    0.27983046450000    0.11494810660000
C         1.23347054440000    0.88089554020000    1.26342887290000
C         2.59521159640000    0.94832835970000    1.49027172100000
C         3.47272575360000    0.40657480940000    0.56503995620000
C         2.98376103130000   -0.19632472810000   -0.57733791560000
C         1.61406930420000   -0.26719509060000   -0.82668573940000
C         1.10166335730000   -0.94319284190000   -2.01746582230000
C         1.73669556580000   -1.02643634540000   -3.17890977360000
H        -1.30868394290000   -1.54375109930000    4.02022381380000
H        -2.69716714570000   -0.56537230130000    3.34482209670000
H        -0.11930759220000   -1.38614620740000    1.91421630810000
H        -3.66980784910000   -0.64193682090000    1.28244633320000
H        -4.53810589080000    0.44656124930000   -0.73939294770000
H        -2.97110973400000    1.41648437760000   -2.38782089550000
H        -0.54332219830000    1.30638430180000   -1.97786172780000
H         0.54310539310000    1.30812426690000    1.97694770370000
H         2.97089553680000    1.41935298300000    2.38660414030000
H         4.53807358440000    0.44866675470000    0.73880606500000
H         3.66995876470000   -0.64175805540000   -1.28209065880000
H         0.11977282160000   -1.38791375240000   -1.91284616140000
H         2.69687406770000   -0.56667095520000   -3.34454763250000
H         1.30881151950000   -1.54630952220000   -4.01900163370000
$end

$rem
BASIS = 6-31G*
GUI = 2
METHOD = B3LYP
PRINT_ORBITALS false
MOLDEN_FORMAT false
--------------------------------------------------------------

             Standard Nuclear Orientation (Angstroms)
    I     Atom           X                Y                Z
 ----------------------------------------------------------------
    1      C      -2.4104506432     2.7045205467     1.0168492848
    2      C      -1.5291888663     1.7167844263     0.9337336852
    3      C      -1.7591483846     0.4406858829     0.2583299736
    4      C      -3.0370059452    -0.1119128716     0.1877790415
    5      C      -3.2550746482    -1.3355289953    -0.4145553641
    6      C      -2.1911361622    -2.0386539653    -0.9560650501
    7      C      -0.9159381779    -1.5097870902    -0.8889330435
    8      C      -0.6837590595    -0.2766369371    -0.2884231908
    9      C       0.6838065048     0.2767527985    -0.2883862306
   10      C       0.9161087797     1.5098625679    -0.8889270765
   11      C       2.1913592735     2.0386131497    -0.9560281636
   12      C       3.2552205943     1.3354133441    -0.4144647347
   13      C       3.0370253096     0.1118406548     0.1879157477
   14      C       1.7591155812    -0.4406308828     0.2584444572
   15      C       1.5290176410    -1.7166809875     0.9339006646
   16      C       2.4100954105    -2.7045947419     1.0168212081
   17      H      -2.1835226479     3.6198255072     1.5362987929
   18      H      -3.3833554113     2.6485042777     0.5574144457
   19      H      -0.5489524235     1.8371642546     1.3781151672
   20      H      -3.8647485349     0.4196414628     0.6330257306
   21      H      -4.2535536972    -1.7456771366    -0.4563913265
   22      H      -2.3544710873    -2.9969250284    -1.4266523653
   23      H      -0.0821546901    -2.0489450768    -1.3159587938
   24      H       0.0823905897     2.0490752290    -1.3160116521
   25      H       2.3547980743     2.9968511813    -1.4266469668
   26      H       4.2537390142     1.7454661338    -0.4562985482
   27      H       3.8647011372    -0.4197819664     0.6332074729
   28      H       0.5488463857    -1.8368536214     1.3784834288
   29      H       3.3829076536    -2.6487623522     0.5571670404
   30      H       2.1830923916    -3.6198642606     1.5363003204
 ----------------------------------------------------------------

    8    -618.0938223059      4.31e-06  Convergence criterion met
 Total energy in the final basis set =     -618.0938223059

                    Orbital Energies (a.u.)
 --------------------------------------------------------------

 Alpha MOs
 -- Occupied --
-10.1932 -10.1932 -10.1924 -10.1921 -10.1857 -10.1857 -10.1857 -10.1857
-10.1850 -10.1849 -10.1842 -10.1842 -10.1838 -10.1838 -10.1766 -10.1766
 -0.8773  -0.8526  -0.7927  -0.7894  -0.7742  -0.7304  -0.7250  -0.7140
 -0.6316  -0.6248  -0.6145  -0.5800  -0.5598  -0.5524  -0.5199  -0.4962
 -0.4755  -0.4715  -0.4548  -0.4473  -0.4354  -0.4338  -0.4168  -0.4151
 -0.4129  -0.3818  -0.3741  -0.3678  -0.3659  -0.3522  -0.3423  -0.3394
 -0.3255  -0.2954  -0.2882  -0.2634  -0.2397  -0.2260  -0.2177

          Ground-State Mulliken Net Atomic Charges

     Atom                 Charge (a.u.)
  ----------------------------------------
      1 C                    -0.345225
      2 C                    -0.129517
      3 C                     0.133178
      4 C                    -0.199682
      5 C                    -0.121840
      6 C                    -0.134156
      7 C                    -0.159614
      8 C                    -0.006234
      9 C                    -0.006209
     10 C                    -0.159624
     11 C                    -0.134154
     12 C                    -0.121841
     13 C                    -0.199675
     14 C                     0.133152
     15 C                    -0.129519
     16 C                    -0.345218
     17 H                     0.142507
     18 H                     0.141410
     19 H                     0.149540
     20 H                     0.129724
     21 H                     0.127950
     22 H                     0.129152
     23 H                     0.142803
     24 H                     0.142801
     25 H                     0.129152
     26 H                     0.127950
     27 H                     0.129727
     28 H                     0.149543
     29 H                     0.141410
     30 H                     0.142506
  ----------------------------------------
  Sum of atomic charges =     0.000000

                    Cartesian Multipole Moments
 -----------------------------------------------------------------
    Charge (ESU x 10^10)
                 0.0000
    Dipole Moment (Debye)
         X       0.0000      Y      -0.0001      Z      -0.1295
       Tot       0.1295
    Quadrupole Moments (Debye-Ang)
        XX     -84.2273     XY       1.1561     YY     -86.4193
        XZ      -0.0006     YZ       0.0001     ZZ     -95.6251

 Total job time:  51.65s(wall), 51.38s(cpu)
        *  Thank you very much for using Q-Chem.  Have a nice day.  *
