 Q-Chem 5.2, Q-Chem, Inc., Pleasanton, CA (2019)
 Q-Chem 5.2.1 for Intel X86 EM64T Linux

User input:
--------------------------------------------------------------
$molecule
0 1
F        -6.69975674870000    0.22589107780000   -0.09334006480000
C        -5.41134247300000   -0.02855911390000    0.12968992390000
F        -5.31531434100000   -0.98334815970000    1.04749449820000
C        -4.43037149010000    0.60467984600000   -0.49746178750000
C        -2.99661782860000    0.42472238740000   -0.34989004540000
C        -2.41862117360000   -0.48724403350000    0.53665345170000
C        -1.04800524010000   -0.60644809590000    0.63039926220000
C        -0.21192731820000    0.17654460590000   -0.16382118790000
N         1.17590822740000    0.05068280710000   -0.06975657920000
C         1.88515656830000   -1.13640696180000   -0.09778705770000
C         3.26582861220000   -0.85786352960000    0.01864083050000
C         4.18920564520000   -1.89456410190000   -0.00475939580000
C         3.72830048950000   -3.18739501970000   -0.15299663250000
C         2.36775832350000   -3.45018714580000   -0.29404698170000
C         1.43013947320000   -2.43506909860000   -0.27396785390000
C         2.07613494700000    1.09168923520000    0.06626872750000
C         3.38780539040000    0.56916067230000    0.12958677020000
C         4.47046190740000    1.42404557900000    0.28726102670000
C         4.23299527230000    2.78017960600000    0.38934006130000
C         2.93496042310000    3.28391540300000    0.35314464730000
C         1.84184004070000    2.45280177880000    0.19703218070000
C        -0.77961114660000    1.08712123440000   -1.05347685220000
C        -2.14965653560000    1.20831423400000   -1.13872629210000
H        -4.75107697940000    1.34980106920000   -1.21118308170000
H        -3.03887501350000   -1.10280837890000    1.16691633120000
H        -0.61366408930000   -1.29738469220000    1.33689883540000
H         5.24481907960000   -1.68788654570000    0.08635871670000
H         4.42906331120000   -4.00868082840000   -0.17087279870000
H         2.03749671110000   -4.46990562420000   -0.42609420630000
H         0.38026493530000   -2.64961110280000   -0.40469571960000
H         5.47467117780000    1.03070665260000    0.33387644790000
H         5.06084425740000    3.46287321150000    0.50984356940000
H         2.77809935060000    4.34774472800000    0.45363873220000
H         0.83925093930000    2.85312409440000    0.19177095930000
H        -0.13987034850000    1.68221153990000   -1.68738362200000
H        -2.57718425720000    1.91466969090000   -1.83515469220000
$end

$rem
BASIS = 6-31G*
GUI = 2
METHOD = B3LYP
PRINT_ORBITALS false
MOLDEN_FORMAT false
--------------------------------------------------------------

             Standard Nuclear Orientation (Angstroms)
    I     Atom           X                Y                Z
 ----------------------------------------------------------------
    1      F       6.7856334702    -0.1951681702    -0.0566268658
    2      C       5.4954123069     0.0551399303     0.1605684984
    3      F       5.3921976600     1.0113420306     1.0761191746
    4      C       4.5192996958    -0.5827753878    -0.4694181175
    5      C       3.0843181008    -0.4076195152    -0.3281385712
    6      C       2.4994233692     0.5039915180     0.5542364824
    7      C       1.1280169429     0.6185150477     0.6420698344
    8      C       0.2980185983    -0.1689596896    -0.1540936362
    9      N      -1.0906320590    -0.0478389172    -0.0660257359
   10      C      -1.8039527695     1.1366728028    -0.0992911147
   11      C      -3.1841023056     0.8534599438     0.0119515221
   12      C      -4.1110357491     1.8868333903    -0.0172803725
   13      C      -3.6540953682     3.1810034535    -0.1661056345
   14      C      -2.2939174669     3.4483465139    -0.3020234514
   15      C      -1.3528049773     2.4365995377    -0.2760953248
   16      C      -1.9877275904    -1.0917675688     0.0682798562
   17      C      -3.3014898255    -0.5737722186     0.1251501682
   18      C      -4.3817607186    -1.4321861142     0.2799884391
   19      C      -4.1399241314    -2.7872713014     0.3856730249
   20      C      -2.8399763702    -3.2864703343     0.3558322010
   21      C      -1.7491641613    -2.4517874317     0.2026450412
   22      C       0.8726086611    -1.0792234777    -1.0396262569
   23      C       2.2434163131    -1.1957216467    -1.1189618460
   24      H       4.8455993814    -1.3281231468    -1.1803618335
   25      H       3.1148738098     1.1229594275     1.1858732994
   26      H       0.6883049446     1.3092618709     1.3454256812
   27      H      -5.1662806568     1.6765897357     0.0698610995
   28      H      -4.3576788229     3.9997637573    -0.1884742802
   29      H      -1.9667197747     4.4689742346    -0.4346722480
   30      H      -0.3031622551     2.6546112178    -0.4028851300
   31      H      -5.3875400064    -1.0423213120     0.3216804936
   32      H      -4.9658460840    -3.4726632164     0.5040641039
   33      H      -2.6797715851    -4.3495420202     0.4590325269
   34      H      -0.7451520031    -2.8485619514     0.2023135425
   35      H       0.2376142540    -1.6777935966    -1.6750272870
   36      H       2.6763277152    -1.9018920352    -1.8122450500
 ----------------------------------------------------------------

    9   -1024.3866373266      4.19e-06  Convergence criterion met
 Total energy in the final basis set =    -1024.3866373266

                    Orbital Energies (a.u.)
 --------------------------------------------------------------

 Alpha MOs
 -- Occupied --
-24.7495 -24.7386 -14.3834 -10.3619 -10.2382 -10.2208 -10.2207 -10.2135
-10.2085 -10.2010 -10.1993 -10.1990 -10.1981 -10.1848 -10.1847 -10.1845
-10.1844 -10.1838 -10.1834 -10.1834 -10.1832 -10.1776 -10.1774  -1.2902
 -1.2292  -1.0023  -0.8822  -0.8521  -0.8480  -0.8141  -0.7830  -0.7659
 -0.7526  -0.7507  -0.7173  -0.7170  -0.6613  -0.6368  -0.6328  -0.6172
 -0.6041  -0.5838  -0.5773  -0.5742  -0.5451  -0.5357  -0.5237  -0.5183
 -0.5061  -0.4874  -0.4685  -0.4624  -0.4545  -0.4529  -0.4455  -0.4424
 -0.4385  -0.4348  -0.4336  -0.4215  -0.4181  -0.4159  -0.4126  -0.3879
 -0.3845  -0.3655  -0.3622  -0.3584  -0.3537  -0.3399  -0.3341  -0.3325
 -0.3024  -0.2793  -0.2667  -0.2521  -0.2348  -0.2121  -0.1950

          Ground-State Mulliken Net Atomic Charges

     Atom                 Charge (a.u.)
  ----------------------------------------
      1 F                    -0.246828
      2 C                     0.545153
      3 F                    -0.234049
      4 C                    -0.299962
      5 C                     0.204652
      6 C                    -0.208831
      7 C                    -0.161083
      8 C                     0.290062
      9 N                    -0.734430
     10 C                     0.311860
     11 C                     0.060413
     12 C                    -0.194836
     13 C                    -0.145160
     14 C                    -0.138940
     15 C                    -0.176854
     16 C                     0.312189
     17 C                     0.059889
     18 C                    -0.195024
     19 C                    -0.144998
     20 C                    -0.138932
     21 C                    -0.176998
     22 C                    -0.160906
     23 C                    -0.208887
     24 H                     0.161369
     25 H                     0.145557
     26 H                     0.155048
     27 H                     0.129018
     28 H                     0.122069
     29 H                     0.125396
     30 H                     0.139423
     31 H                     0.129088
     32 H                     0.122003
     33 H                     0.125036
     34 H                     0.138692
     35 H                     0.154576
     36 H                     0.135229
  ----------------------------------------
  Sum of atomic charges =     0.000000

                    Cartesian Multipole Moments
 -----------------------------------------------------------------
    Charge (ESU x 10^10)
                 0.0000
    Dipole Moment (Debye)
         X       0.5557      Y      -0.5529      Z      -0.5300
       Tot       0.9462
    Quadrupole Moments (Debye-Ang)
        XX    -127.1876     XY      -2.3825     YY    -120.1399
        XZ      -3.0059     YZ       2.6718     ZZ    -131.0048

 Total job time:  103.89s(wall), 103.61s(cpu)
        *  Thank you very much for using Q-Chem.  Have a nice day.  *
