 Q-Chem 5.4, Q-Chem, Inc., Pleasanton, CA (2021)
 Q-Chem 5.4.2 for Intel X86 EM64T Linux

User input:
--------------------------------------------------------------
$molecule
0 1
C           -3.80433498860000        2.50647484020000        0.01403533450000
C           -2.49454650370000        2.28926865120000       -0.00246444070000
C           -1.82361075060000        0.99565646270000       -0.00195271460000
C           -2.50498727030000       -0.21997965480000       -0.00396446330000
C           -1.82261279430000       -1.42090837740000       -0.00259127260000
C           -0.43329469380000       -1.45022607950000        0.00090200940000
O            0.30724140220000       -2.59187063880000        0.00255726990000
C           -0.35518162330000       -3.83319886130000        0.00257761470000
C            0.28209219180000       -0.23175119480000        0.00210992270000
C            1.73408144920000       -0.29808101620000        0.00588052090000
C            2.60752598530000        0.69665244360000       -0.00186021950000
F            2.36920250990000        2.00534296270000       -0.01558773990000
F            3.92749537080000        0.50526080900000        0.00310810130000
C           -0.43009807720000        0.96093672290000        0.00033265790000
H           -4.20417088540000        3.50576288680000        0.01254288050000
H           -4.52968741120000        1.71118250500000        0.03025745340000
H           -1.82356454940000        3.13928950310000       -0.01645006800000
H           -3.58326546060000       -0.23729368340000       -0.00746433320000
H           -2.38840683660000       -2.33921464790000       -0.00441781710000
H            0.43290468770000       -4.58475968620000        0.00529729870000
H           -0.97172612510000       -3.96054788140000       -0.89270524600000
H           -0.97585806870000       -3.95831445810000        0.89530880170000
H            2.15789849810000       -1.29071589750000        0.01559388170000
H            0.10676754890000        1.89579984970000        0.00169974830000
$end

$rem
BASIS = 6-31G*
GUI = 2
METHOD = B3LYP
PRINT_ORBITALS false
MOLDEN_FORMAT false
$end
--------------------------------------------------------------

             Standard Nuclear Orientation (Angstroms)
    I     Atom           X                Y                Z
 ----------------------------------------------------------------
    1      C       4.1455116532     1.7261423246    -0.0119972916
    2      C       2.8191442398     1.7853685428     0.0034424631
    3      C       1.8944627208     0.6590686144     0.0031253799
    4      C       2.3088517791    -0.6714648805     0.0065174557
    5      C       1.3922067633    -1.7047252390     0.0052706454
    6      C       0.0270294583    -1.4452161950     0.0005275461
    7      O      -0.9342142765    -2.4084174255    -0.0010914068
    8      C      -0.5436943277    -3.7601542137     0.0002673053
    9      C      -0.4200419475    -0.1048501300    -0.0020935090
   10      C      -1.8542046064     0.1314517653    -0.0071480371
   11      C      -2.5023142358     1.2857367656    -0.0008251270
   12      F      -1.9977173875     2.5165361234     0.0123034656
   13      F      -3.8332698777     1.3723107361    -0.0068788528
   14      C       0.5240605889     0.9141641851    -0.0004102691
   15      H       4.7439363548     2.6207561663    -0.0107633098
   16      H       4.6901278525     0.7976729026    -0.0270611722
   17      H       2.3390701711     2.7560959909     0.0162853371
   18      H       3.3600816916    -0.9120710890     0.0110123311
   19      H       1.7552040733    -2.7204206124     0.0081865236
   20      H      -1.4705363073    -4.3318938634    -0.0027028332
   21      H       0.0323393214    -4.0119096302     0.8961918232
   22      H       0.0382098127    -4.0120116527    -0.8918187536
   23      H      -2.4747024627    -0.7516856930    -0.0166289603
   24      H       0.1927965755     1.9400559111    -0.0028506182
 ----------------------------------------------------------------

    9    -700.0384587004      4.48e-06  Convergence criterion met
 Total energy in the final basis set =     -700.0384587004

                    Orbital Energies (a.u.)
 --------------------------------------------------------------

 Alpha MOs
 -- Occupied --
-24.7382 -24.7271 -19.1876 -10.3492 -10.2515 -10.2472 -10.2018 -10.1941
-10.1896 -10.1889 -10.1883 -10.1861 -10.1857 -10.1744  -1.2782  -1.2172
 -1.0779  -0.8672  -0.8105  -0.7836  -0.7453  -0.7389  -0.6957  -0.6450
 -0.6155  -0.6086  -0.5724  -0.5556  -0.5393  -0.5121  -0.5093  -0.5009
 -0.4792  -0.4712  -0.4426  -0.4396  -0.4344  -0.4338  -0.4276  -0.4142
 -0.4045  -0.3921  -0.3786  -0.3670  -0.3438  -0.3401  -0.3288  -0.3023
 -0.2751  -0.2287  -0.2006

          Ground-State Mulliken Net Atomic Charges

     Atom                 Charge (a.u.)
  ----------------------------------------
      1 C                    -0.359924
      2 C                    -0.110835
      3 C                     0.189996
      4 C                    -0.193763
      5 C                    -0.195271
      6 C                     0.324148
      7 O                    -0.510648
      8 C                    -0.216230
      9 C                     0.130223
     10 C                    -0.286734
     11 C                     0.545541
     12 F                    -0.238216
     13 F                    -0.251602
     14 C                    -0.295789
     15 H                     0.141982
     16 H                     0.138353
     17 H                     0.127011
     18 H                     0.127646
     19 H                     0.131900
     20 H                     0.172050
     21 H                     0.155302
     22 H                     0.155287
     23 H                     0.180132
     24 H                     0.139439
  ----------------------------------------
  Sum of atomic charges =     0.000000

                    Cartesian Multipole Moments
 -----------------------------------------------------------------
    Charge (ESU x 10^10)
                 0.0000
    Dipole Moment (Debye)
         X       0.9753      Y      -2.6001      Z      -0.0020
       Tot       2.7770
    Quadrupole Moments (Debye-Ang)
        XX     -79.5128     XY       1.2926     YY     -66.8361
        XZ      -0.0015     YZ       0.0091     ZZ     -82.2367

 Total job time:  63.52s(wall), 54.71s(cpu)
        *  Thank you very much for using Q-Chem.  Have a nice day.  *
