 Q-Chem 5.2, Q-Chem, Inc., Pleasanton, CA (2019)
 Q-Chem 5.2.1 for Intel X86 EM64T Linux

User input:
--------------------------------------------------------------
$molecule
0 1
C         3.56761535390000    1.46358148380000   -0.58493319240000
C         2.35415773940000    1.80881217550000   -0.17274354560000
C         1.21665390740000    0.92254443930000   -0.05184746080000
C        -0.11100921650000    1.29731859710000   -0.17192696480000
N        -0.85997181540000    0.18794760270000   -0.03787040580000
C        -2.30776602820000    0.03251506660000   -0.04432591840000
C        -2.98399553260000    1.31622445940000   -0.51816387880000
C        -2.64547588850000   -1.12418586080000   -0.98843707780000
C        -2.74494287420000   -0.30768509410000    1.38454344760000
N        -0.10790354500000   -0.88257722640000    0.18780982030000
C         1.15711124460000   -0.47973328530000    0.18328442820000
C         2.24633974560000   -1.39028564280000    0.46204857470000
C         2.13994360540000   -2.71112243850000    0.38782736700000
H         4.36417774900000    2.18547417090000   -0.65003408540000
H         3.80555067460000    0.45909063910000   -0.88970463430000
H         2.14763952790000    2.84402298860000    0.07542438050000
H        -0.52750287690000    2.26525811420000   -0.36004612650000
H        -2.62542947190000    1.60146078540000   -1.50483850550000
H        -2.80623254170000    2.13423660700000    0.17615992080000
H        -4.05677400260000    1.15217529800000   -0.57913033010000
H        -2.35818136190000   -0.87678361820000   -2.00801537670000
H        -3.71165886870000   -1.33139276040000   -0.96430197750000
H        -2.10024718580000   -2.01191137520000   -0.68125804510000
H        -2.49877774580000    0.50811997670000    2.06128983920000
H        -2.22756818880000   -1.20312163080000    1.71866017330000
H        -3.81694015630000   -0.48090665770000    1.42104426670000
H         3.17625503410000   -0.92361330550000    0.75812607620000
H         1.21505923500000   -3.17284875480000    0.08864178190000
H         2.96455336790000   -3.36301767020000    0.62084371240000
$end

$rem
BASIS = 6-31G*
GUI = 2
METHOD = B3LYP
PRINT_ORBITALS false
MOLDEN_FORMAT false
--------------------------------------------------------------

             Standard Nuclear Orientation (Angstroms)
    I     Atom           X                Y                Z
 ----------------------------------------------------------------
    1      C       3.6306687285     1.5044589693    -0.3202251802
    2      C       2.4204934543     1.7858105843     0.1465520601
    3      C       1.2734098361     0.9043188176     0.1123063401
    4      C      -0.0500151356     1.3085326628     0.0601370108
    5      N      -0.8109878194     0.2008778459    -0.0002079970
    6      C      -2.2603566288     0.0645295609    -0.0325843650
    7      C      -2.9222202048     1.4182744292    -0.2755452646
    8      C      -2.6093269494    -0.9067070472    -1.1631904118
    9      C      -2.7028532695    -0.5141882926     1.3156773967
   10      N      -0.0707093352    -0.9006131449     0.0353872324
   11      C       1.1985564133    -0.5167592746     0.1000927494
   12      C       2.2776276223    -1.4735823401     0.2155428244
   13      C       2.1571641910    -2.7601757105    -0.0871200707
   14      H       4.4350020690     2.2180583805    -0.2593763097
   15      H       3.8581824273     0.5657520694    -0.7951647328
   16      H       2.2247916611     2.7642707411     0.5710694902
   17      H      -0.4558830560     2.2988638550     0.0434619466
   18      H      -2.5594444718     1.8668344552    -1.1978488325
   19      H      -2.7365219975     2.1011505595     0.5503030627
   20      H      -3.9966227104     1.2788815499    -0.3633607663
   21      H      -2.3181851566    -0.4889147556    -2.1244250240
   22      H      -3.6776981874    -1.1034647085    -1.1747086623
   23      H      -2.0740129032    -1.8401363461    -1.0154118569
   24      H      -2.4487596841     0.1688341857     2.1237848194
   25      H      -2.1955063012    -1.4595942964     1.4886620330
   26      H      -3.7766887814    -0.6795675386     1.3222493904
   27      H       3.2121405611    -1.0755317934     0.5876029414
   28      H       1.2277386004    -3.1528696367    -0.4613844905
   29      H       2.9744596673    -3.4514937821     0.0284338090
 ----------------------------------------------------------------

    9    -538.2574334379      4.25e-06  Convergence criterion met
 Total energy in the final basis set =     -538.2574334379

                    Orbital Energies (a.u.)
 --------------------------------------------------------------

 Alpha MOs
 -- Occupied --
-14.4063 -14.3330 -10.2422 -10.2117 -10.1989 -10.1892 -10.1867 -10.1781
-10.1777 -10.1765 -10.1740 -10.1701 -10.1668  -1.0551  -0.8680  -0.8038
 -0.7967  -0.7527  -0.7301  -0.7014  -0.6956  -0.6311  -0.6202  -0.5676
 -0.5557  -0.5275  -0.5011  -0.4727  -0.4645  -0.4555  -0.4447  -0.4332
 -0.4319  -0.4165  -0.4016  -0.3915  -0.3877  -0.3752  -0.3724  -0.3580
 -0.3505  -0.3467  -0.3404  -0.2963  -0.2916  -0.2733  -0.2237  -0.2052

          Ground-State Mulliken Net Atomic Charges

     Atom                 Charge (a.u.)
  ----------------------------------------
      1 C                    -0.357532
      2 C                    -0.117289
      3 C                    -0.023604
      4 C                     0.036269
      5 N                    -0.222513
      6 C                     0.176988
      7 C                    -0.468533
      8 C                    -0.441985
      9 C                    -0.434913
     10 N                    -0.388237
     11 C                     0.278639
     12 C                    -0.096555
     13 C                    -0.345909
     14 H                     0.136906
     15 H                     0.147561
     16 H                     0.124191
     17 H                     0.155717
     18 H                     0.158076
     19 H                     0.153034
     20 H                     0.160106
     21 H                     0.148394
     22 H                     0.140906
     23 H                     0.185420
     24 H                     0.146919
     25 H                     0.179178
     26 H                     0.143305
     27 H                     0.135305
     28 H                     0.154769
     29 H                     0.135384
  ----------------------------------------
  Sum of atomic charges =     0.000000

                    Cartesian Multipole Moments
 -----------------------------------------------------------------
    Charge (ESU x 10^10)
                 0.0000
    Dipole Moment (Debye)
         X      -2.0107      Y       1.6332      Z       0.0174
       Tot       2.5905
    Quadrupole Moments (Debye-Ang)
        XX     -71.2101     XY      -1.5155     YY     -75.9518
        XZ       0.4890     YZ       1.2530     ZZ     -81.2783

 Total job time:  45.63s(wall), 45.49s(cpu)
        *  Thank you very much for using Q-Chem.  Have a nice day.  *
