 Q-Chem 5.2, Q-Chem, Inc., Pleasanton, CA (2019)
 Q-Chem 5.2.1 for Intel X86 EM64T Linux

User input:
--------------------------------------------------------------
$molecule
0 1
C         4.74235458240000    0.40132590970000   -0.02152216710000
C         3.75842104490000   -0.49053987420000    0.00604052700000
C         2.33291797210000   -0.20342692080000    0.00605898660000
C         1.40967718370000   -1.25294954100000    0.01488886980000
C         0.05505506420000   -0.98859393030000    0.01286396090000
C        -0.36577413170000    0.34394702950000    0.00206236380000
C        -1.75541844860000    0.77293038560000   -0.00325541220000
C        -2.84518752070000    0.02070855710000   -0.00248795940000
F        -2.91649862300000   -1.30534308930000    0.00406735490000
F        -4.07857044690000    0.51607882450000   -0.00853540930000
N         0.51025560830000    1.35212259310000   -0.00408162700000
C         1.79608313870000    1.09002857220000   -0.00190053920000
H         5.77366911660000    0.09324740270000   -0.01982878900000
H         4.56639066230000    1.46268793280000   -0.04779528520000
H         4.00284654590000   -1.54600669220000    0.02977773200000
H         1.76060562970000   -2.27577093980000    0.02268067860000
H        -0.65622734660000   -1.79754960170000    0.01963907560000
H        -1.90035234660000    1.84267525510000   -0.00956253270000
H         2.43696192320000    1.96096140790000   -0.00589191830000
$end

$rem
BASIS = 6-31G*
GUI = 2
METHOD = B3LYP
PRINT_ORBITALS false
MOLDEN_FORMAT false
--------------------------------------------------------------

             Standard Nuclear Orientation (Angstroms)
    I     Atom           X                Y                Z
 ----------------------------------------------------------------
    1      C       4.6155951189    -0.3295904519     0.0173620375
    2      C       3.6184541846     0.5476853875    -0.0028008872
    3      C       2.1973941390     0.2393398563    -0.0048598113
    4      C       1.2585925941     1.2750043199    -0.0050286010
    5      C      -0.0919333279     0.9904541729    -0.0048742392
    6      C      -0.4928282798    -0.3482625708    -0.0047571390
    7      C      -1.8759149085    -0.7979660205    -0.0026333071
    8      C      -2.9767873643    -0.0621099058     0.0028905842
    9      F      -3.0678797163     1.2627395134     0.0070636347
   10      F      -4.2026391627    -0.5758645716     0.0051770554
   11      N       0.3981496516    -1.3432688129    -0.0069308284
   12      C       1.6799223449    -1.0620053525    -0.0072461563
   13      H       5.6421971470    -0.0061513916     0.0179558206
   14      H       4.4554965788    -1.3936379059     0.0350932304
   15      H       3.8470954498     1.6068397191    -0.0180572973
   16      H       1.5942171175     2.3029785981    -0.0046247728
   17      H      -0.8152097550     1.7887329766    -0.0049735851
   18      H      -2.0048681149    -1.8697707808    -0.0049412716
   19      H       2.3337269195    -1.9232806123    -0.0104174194
 ----------------------------------------------------------------

    9    -601.5549727859      6.73e-06  Convergence criterion met
 Total energy in the final basis set =     -601.5549727859

                    Orbital Energies (a.u.)
 --------------------------------------------------------------

 Alpha MOs
 -- Occupied --
-24.7491 -24.7389 -14.3280 -10.3624 -10.2373 -10.2221 -10.2073 -10.2049
-10.2014 -10.1992 -10.1983 -10.1880  -1.2907  -1.2294  -0.9547  -0.8315
 -0.8136  -0.7802  -0.7366  -0.6642  -0.6431  -0.6206  -0.5812  -0.5771
 -0.5456  -0.5239  -0.5007  -0.4938  -0.4595  -0.4560  -0.4454  -0.4392
 -0.4279  -0.4193  -0.4137  -0.3956  -0.3772  -0.3653  -0.3350  -0.2893
 -0.2742  -0.2561  -0.2195

          Ground-State Mulliken Net Atomic Charges

     Atom                 Charge (a.u.)
  ----------------------------------------
      1 C                    -0.348913
      2 C                    -0.118047
      3 C                     0.153395
      4 C                    -0.165528
      5 C                    -0.176656
      6 C                     0.314472
      7 C                    -0.272241
      8 C                     0.553235
      9 F                    -0.235542
     10 F                    -0.242829
     11 N                    -0.490387
     12 C                    -0.004836
     13 H                     0.148743
     14 H                     0.149686
     15 H                     0.130323
     16 H                     0.140913
     17 H                     0.145985
     18 H                     0.179108
     19 H                     0.139119
  ----------------------------------------
  Sum of atomic charges =     0.000000

                    Cartesian Multipole Moments
 -----------------------------------------------------------------
    Charge (ESU x 10^10)
                 0.0000
    Dipole Moment (Debye)
         X       1.3510      Y       1.3112      Z       0.0009
       Tot       1.8827
    Quadrupole Moments (Debye-Ang)
        XX     -62.8145     XY       0.9105     YY     -64.3967
        XZ       0.0261     YZ      -0.0540     ZZ     -69.1506

 Total job time:  21.42s(wall), 21.34s(cpu)
        *  Thank you very much for using Q-Chem.  Have a nice day.  *
