 Q-Chem 5.2, Q-Chem, Inc., Pleasanton, CA (2019)
 Q-Chem 5.2.1 for Intel X86 EM64T Linux

User input:
--------------------------------------------------------------
$molecule
0 1
C         3.80270984360000   -0.33405623680000   -0.03845897440000
C         2.88997835180000    0.62907598020000    0.00974431820000
C         1.44198646980000    0.46618889120000    0.00218510720000
C         0.63678594260000    1.60545166240000    0.03475931500000
C        -0.74398668530000    1.52698797670000    0.02061790830000
C        -1.58596045400000    2.77437718870000    0.05056111460000
C        -1.34943408780000    0.26844965700000   -0.02318448030000
O        -2.70593642800000    0.13596023490000   -0.03491353320000
C        -0.56778073770000   -0.89991707250000   -0.04719105260000
C        -1.24320927750000   -2.19200597560000   -0.09564284510000
C        -0.69460104000000   -3.37498202080000    0.15014932190000
C         0.81558616750000   -0.77502489700000   -0.03937460700000
H         4.85516477390000   -0.10786066560000   -0.02778782610000
H         3.54767858720000   -1.37831682230000   -0.09141555570000
H         3.22304022690000    1.65920272110000    0.05955751260000
H         1.10392300740000    2.58007271520000    0.06764861160000
H        -0.94814186130000    3.65346560630000    0.08187855360000
H        -2.22823199960000    2.79577388400000    0.93341682050000
H        -2.21339394020000    2.84852587470000   -0.84011769210000
H        -3.11222109010000    1.01016864010000   -0.01794796210000
H        -2.29522923410000   -2.13402118280000   -0.33911889980000
H         0.33904469300000   -3.49355858930000    0.42786881960000
H        -1.27260215530000   -4.28126913070000    0.09121081540000
H         1.41295683890000   -1.67035352440000   -0.07894827590000
$end

$rem
BASIS = 6-31G*
GUI = 2
METHOD = B3LYP
PRINT_ORBITALS false
MOLDEN_FORMAT false
--------------------------------------------------------------

             Standard Nuclear Orientation (Angstroms)
    I     Atom           X                Y                Z
 ----------------------------------------------------------------
    1      C       3.8035522931    -0.0834394018    -0.0415262526
    2      C       2.8272876580     0.8152002941     0.0072596080
    3      C       1.3937708405     0.5539537712     0.0002151854
    4      C       0.5127701051     1.6356500610     0.0333734537
    5      C      -0.8594434744     1.4632156011     0.0197415501
    6      C      -1.7845061547     2.6502795980     0.0503090748
    7      C      -1.3776779119     0.1663301296    -0.0241338437
    8      O      -2.7219926670    -0.0583498095    -0.0353757655
    9      C      -0.5181814978    -0.9460099269    -0.0487225120
   10      C      -1.1039481732    -2.2811389764    -0.0972286476
   11      C      -0.4758506828    -3.4240040911     0.1480670580
   12      C       0.8534517926    -0.7270767814    -0.0414053194
   13      H       4.8381370568     0.2139954493    -0.0312031683
   14      H       3.6203028319    -1.1426486733    -0.0946380763
   15      H       3.0893486479     1.8656302956     0.0571947559
   16      H       0.9123724339     2.6398499649     0.0663199467
   17      H      -1.2081057653     3.5708085501     0.0815952479
   18      H      -2.4263899737     2.6276390170     0.9334157056
   19      H      -2.4158902068     2.6816622018    -0.8401115308
   20      H      -3.1869380146     0.7861149867    -0.0180430021
   21      H      -2.1575702791    -2.2949751375    -0.3402879679
   22      H       0.5635854299    -3.4718790015     0.4253621787
   23      H      -0.9907291340    -4.3675834497     0.0891303386
   24      H       1.5104695433    -1.5795773921    -0.0814244321
 ----------------------------------------------------------------

    9    -501.5787589604      2.38e-06  Convergence criterion met
 Total energy in the final basis set =     -501.5787589604

                    Orbital Energies (a.u.)
 --------------------------------------------------------------

 Alpha MOs
 -- Occupied --
-19.1834 -10.2460 -10.1970 -10.1939 -10.1890 -10.1852 -10.1847 -10.1840
-10.1815 -10.1803 -10.1716 -10.1715  -1.0676  -0.8629  -0.7991  -0.7923
 -0.7425  -0.7181  -0.6941  -0.6317  -0.6164  -0.5673  -0.5467  -0.5382
 -0.4956  -0.4748  -0.4491  -0.4440  -0.4292  -0.4199  -0.4161  -0.4071
 -0.4003  -0.3925  -0.3706  -0.3566  -0.3513  -0.3415  -0.3263  -0.3010
 -0.2690  -0.2239  -0.1998

          Ground-State Mulliken Net Atomic Charges

     Atom                 Charge (a.u.)
  ----------------------------------------
      1 C                    -0.358279
      2 C                    -0.117001
      3 C                     0.202716
      4 C                    -0.282707
      5 C                     0.176848
      6 C                    -0.582058
      7 C                     0.193710
      8 O                    -0.644892
      9 C                     0.144430
     10 C                    -0.103652
     11 C                    -0.351127
     12 C                    -0.275376
     13 H                     0.139757
     14 H                     0.139719
     15 H                     0.121589
     16 H                     0.119832
     17 H                     0.173803
     18 H                     0.163940
     19 H                     0.163400
     20 H                     0.418768
     21 H                     0.150307
     22 H                     0.138578
     23 H                     0.141116
     24 H                     0.126579
  ----------------------------------------
  Sum of atomic charges =     0.000000

                    Cartesian Multipole Moments
 -----------------------------------------------------------------
    Charge (ESU x 10^10)
                 0.0000
    Dipole Moment (Debye)
         X      -0.9908      Y       1.9105      Z       0.0118
       Tot       2.1521
    Quadrupole Moments (Debye-Ang)
        XX     -64.5241     XY      -5.2375     YY     -63.4097
        XZ       0.5195     YZ       0.1718     ZZ     -75.1716

 Total job time:  29.91s(wall), 29.73s(cpu)
        *  Thank you very much for using Q-Chem.  Have a nice day.  *
