 Q-Chem 5.2, Q-Chem, Inc., Pleasanton, CA (2019)
 Q-Chem 5.2.1 for Intel X86 EM64T Linux

User input:
--------------------------------------------------------------
$molecule
0 1
C         4.08466669610000   -0.72780003190000    0.07672816590000
C         3.18980105490000    0.25212338480000    0.06209479130000
C         1.75194169050000    0.02266614750000   -0.00552522910000
C         0.86356122270000    1.08953205830000   -0.01726838390000
C        -0.51437526920000    0.86913803980000   -0.07608753800000
O        -1.24895012530000    2.00876368470000   -0.01705451960000
C        -2.65040337820000    1.99086805460000    0.12050272540000
C        -0.96704438660000   -0.45747976010000   -0.15031267700000
C        -2.35845197760000   -0.89839859090000   -0.29633625140000
C        -2.88689589100000   -1.89248034010000    0.40356566100000
C         0.02539310020000   -1.44666604390000   -0.11950173900000
N         1.31640000970000   -1.24059727610000   -0.04756503300000
H         5.14268095930000   -0.53562655060000    0.12640148860000
H         3.76438521160000   -1.75453575130000    0.03859697780000
H         3.49468990830000    1.28965003770000    0.09909339540000
H         1.21300394000000    2.10870066760000    0.03410781410000
H        -2.91671396230000    2.97316514060000    0.51253644830000
H        -2.98174564170000    1.21906174610000    0.81865749440000
H        -3.14421666320000    1.85312743540000   -0.84544958690000
H        -2.94553415970000   -0.41162847280000   -1.06369863280000
H        -2.33464922840000   -2.39571186920000    1.17966000070000
H        -3.89717005760000   -2.22567853830000    0.23856187120000
H        -0.27636721840000   -2.48483714780000   -0.18122898180000
$end

$rem
BASIS = 6-31G*
GUI = 2
METHOD = B3LYP
PRINT_ORBITALS false
MOLDEN_FORMAT false
--------------------------------------------------------------

             Standard Nuclear Orientation (Angstroms)
    I     Atom           X                Y                Z
 ----------------------------------------------------------------
    1      C       4.1645270523    -0.3137848388     0.0788450058
    2      C       3.1765565939     0.5722990768     0.0745762701
    3      C       1.7689081120     0.2018878877    -0.0027796925
    4      C       0.7787223772     1.1750748345    -0.0028576492
    5      C      -0.5702302539     0.8195139175    -0.0710150063
    6      O      -1.4148325390     1.8793400775     0.0014226746
    7      C      -2.8079358422     1.7199619650     0.1324771416
    8      C      -0.8882932905    -0.5443126416    -0.1666523926
    9      C      -2.2284269979    -1.1193109135    -0.3252904000
   10      C      -2.6573022797    -2.1714465662     0.3576376649
   11      C       0.1976380651    -1.4301421018    -0.1459101272
   12      N       1.4614817184    -1.0976839810    -0.0652324670
   13      H       5.1979876176    -0.0180110656     0.1360236905
   14      H       3.9482170890    -1.3666154799     0.0242730785
   15      H       3.3764790967     1.6343505374     0.1281052627
   16      H       1.0247628933     2.2230810208     0.0649765479
   17      H      -3.1719208005     2.6648775949     0.5376545531
   18      H      -3.0628242618     0.9086195605     0.8177859413
   19      H      -3.2827104555     1.5482539102    -0.8375709597
   20      H      -2.8587969199    -0.6819445071    -1.0880485850
   21      H      -2.0599807875    -2.6287895022     1.1287312041
   22      H      -3.6288723827    -2.6010461891     0.1832906530
   23      H       0.0009659768    -2.4921523502    -0.2241604007
 ----------------------------------------------------------------

    9    -517.6001898212      2.56e-06  Convergence criterion met
 Total energy in the final basis set =     -517.6001898212

                    Orbital Energies (a.u.)
 --------------------------------------------------------------

 Alpha MOs
 -- Occupied --
-19.1885 -14.3120 -10.2634 -10.2450 -10.2198 -10.2154 -10.1997 -10.1993
-10.1854 -10.1848 -10.1815 -10.1737  -1.0782  -0.9426  -0.8234  -0.7977
 -0.7770  -0.7226  -0.7147  -0.6405  -0.6251  -0.5801  -0.5666  -0.5289
 -0.5024  -0.4830  -0.4732  -0.4693  -0.4459  -0.4404  -0.4287  -0.4119
 -0.4033  -0.3921  -0.3642  -0.3548  -0.3511  -0.3375  -0.3043  -0.2762
 -0.2464  -0.2403  -0.2198

          Ground-State Mulliken Net Atomic Charges

     Atom                 Charge (a.u.)
  ----------------------------------------
      1 C                    -0.333871
      2 C                    -0.106768
      3 C                     0.327863
      4 C                    -0.250829
      5 C                     0.351165
      6 O                    -0.503442
      7 C                    -0.224135
      8 C                     0.068546
      9 C                    -0.145926
     10 C                    -0.334299
     11 C                    -0.008151
     12 N                    -0.490422
     13 H                     0.139721
     14 H                     0.171053
     15 H                     0.124917
     16 H                     0.140157
     17 H                     0.168316
     18 H                     0.173989
     19 H                     0.153278
     20 H                     0.143129
     21 H                     0.151348
     22 H                     0.143968
     23 H                     0.140393
  ----------------------------------------
  Sum of atomic charges =     0.000000

                    Cartesian Multipole Moments
 -----------------------------------------------------------------
    Charge (ESU x 10^10)
                 0.0000
    Dipole Moment (Debye)
         X      -2.6516      Y       0.9718      Z       0.1199
       Tot       2.8266
    Quadrupole Moments (Debye-Ang)
        XX     -60.5479     XY       1.9313     YY     -68.3972
        XZ       0.6869     YZ      -0.3454     ZZ     -72.0403

 Total job time:  27.81s(wall), 27.72s(cpu)
        *  Thank you very much for using Q-Chem.  Have a nice day.  *
