 Q-Chem 5.4, Q-Chem, Inc., Pleasanton, CA (2021)
 Q-Chem 5.4.2 for Intel X86 EM64T Linux

User input:
--------------------------------------------------------------
$molecule
0 1
C           -3.59270725060000       -2.82656162780000       -0.29402499210000
C           -3.55459521940000       -1.52267174100000       -0.04579048210000
C           -2.37545252290000       -0.66747087480000       -0.03655794730000
C           -2.51658455190000        0.68410475490000        0.27598251750000
C           -1.43399172020000        1.54146101690000        0.28083318020000
C           -0.15742982050000        1.07303455090000       -0.01211166570000
O            0.94914520030000        1.85229945760000       -0.08805606870000
C            0.83841437290000        3.22625788550000        0.19235046200000
C            0.01349044250000       -0.29590050490000       -0.29893939020000
C            1.32696515270000       -0.86410230410000       -0.59771966110000
C            2.47079261720000       -0.56177043960000       -0.00782577950000
F            2.67401107820000        0.27253324120000        0.99973534210000
F            3.63194918290000       -1.13297210770000       -0.33530484700000
C           -1.09372929480000       -1.12993222830000       -0.32823110630000
H           -4.52101752130000       -3.37103047550000       -0.27639464660000
H           -2.71391648620000       -3.40452179970000       -0.52220394900000
H           -4.48038836460000       -1.00713100020000        0.17976274120000
H           -3.49583088170000        1.07595277500000        0.51089629480000
H           -1.59330160440000        2.58275219930000        0.51204643810000
H            1.84484610500000        3.62681994620000        0.08392177540000
H            0.49012324070000        3.40005622670000        1.21494446870000
H            0.16939400920000        3.72841242070000       -0.51413368310000
H            1.36988287450000       -1.63502843250000       -1.35299619480000
H           -0.94036632450000       -2.16993099720000       -0.57030231000000
$end

$rem
BASIS = 6-31G*
GUI = 2
METHOD = B3LYP
PRINT_ORBITALS false
MOLDEN_FORMAT false
$end
--------------------------------------------------------------

             Standard Nuclear Orientation (Angstroms)
    I     Atom           X                Y                Z
 ----------------------------------------------------------------
    1      C       4.2221543082    -1.5995431944    -0.0606980754
    2      C       3.7654496246    -0.3553268371    -0.1416191739
    3      C       2.3771204837     0.0753733677    -0.0474343021
    4      C       2.0729927078     1.4292033612    -0.1853006112
    5      C       0.7756885994     1.8920705894    -0.0860710408
    6      C      -0.2762621512     1.0103707092     0.1394400675
    7      O      -1.5687321887     1.3823515844     0.3087948858
    8      C      -1.9075885779     2.7436595234     0.2055091519
    9      C       0.0041703284    -0.3661170708     0.2494677127
   10      C      -1.0510742541    -1.3540777900     0.4679425112
   11      C      -2.2524080342    -1.3613696019    -0.0838405934
   12      F      -2.7449069105    -0.5187568298    -0.9782612784
   13      F      -3.1612419780    -2.3072534764     0.1633900964
   14      C       1.3183468937    -0.8022021818     0.1775497161
   15      H       5.2735909266    -1.8144661992    -0.1431980953
   16      H       3.5795952501    -2.4499890737     0.0884208954
   17      H       4.4723738410     0.4510359791    -0.2958482909
   18      H       2.8693064924     2.1373732850    -0.3642767088
   19      H       0.5896836894     2.9500013652    -0.1825655147
   20      H      -2.9843877790     2.7873893512     0.3594661544
   21      H      -1.6692044542     3.1422102307    -0.7852185715
   22      H      -1.4061845482     3.3424122983     0.9729440906
   23      H      -0.8210909275    -2.1845824615     1.1190809979
   24      H       1.5099754457    -1.8583499426     0.2850044187
 ----------------------------------------------------------------

    9    -700.0333971687      5.10e-06  Convergence criterion met
 Total energy in the final basis set =     -700.0333971687

                    Orbital Energies (a.u.)
 --------------------------------------------------------------

 Alpha MOs
 -- Occupied --
-24.7284 -24.7242 -19.1823 -10.3470 -10.2503 -10.2433 -10.2011 -10.1938
-10.1894 -10.1888 -10.1879 -10.1876 -10.1869 -10.1746  -1.2731  -1.2122
 -1.0749  -0.8672  -0.8097  -0.7829  -0.7428  -0.7381  -0.6972  -0.6383
 -0.6163  -0.6015  -0.5677  -0.5617  -0.5392  -0.5119  -0.5049  -0.4913
 -0.4765  -0.4661  -0.4538  -0.4406  -0.4308  -0.4277  -0.4225  -0.4064
 -0.4015  -0.3941  -0.3857  -0.3578  -0.3492  -0.3381  -0.3269  -0.2887
 -0.2742  -0.2292  -0.2030

          Ground-State Mulliken Net Atomic Charges

     Atom                 Charge (a.u.)
  ----------------------------------------
      1 C                    -0.357089
      2 C                    -0.115283
      3 C                     0.184228
      4 C                    -0.205404
      5 C                    -0.194581
      6 C                     0.330102
      7 O                    -0.504254
      8 C                    -0.216313
      9 C                     0.129849
     10 C                    -0.315845
     11 C                     0.570678
     12 F                    -0.231835
     13 F                    -0.254209
     14 C                    -0.257409
     15 H                     0.141447
     16 H                     0.139798
     17 H                     0.123666
     18 H                     0.128350
     19 H                     0.132401
     20 H                     0.173114
     21 H                     0.154367
     22 H                     0.152307
     23 H                     0.163762
     24 H                     0.128152
  ----------------------------------------
  Sum of atomic charges =     0.000000

                    Cartesian Multipole Moments
 -----------------------------------------------------------------
    Charge (ESU x 10^10)
                 0.0000
    Dipole Moment (Debye)
         X       0.4795      Y       1.8707      Z       0.2624
       Tot       1.9489
    Quadrupole Moments (Debye-Ang)
        XX     -78.8197     XY      -4.4477     YY     -68.4109
        XZ      -1.0950     YZ      -1.4869     ZZ     -82.0436

 Total job time:  59.41s(wall), 57.44s(cpu)
        *  Thank you very much for using Q-Chem.  Have a nice day.  *
