 Q-Chem 5.2, Q-Chem, Inc., Pleasanton, CA (2019)
 Q-Chem 5.2.1 for Intel X86 EM64T Linux

User input:
--------------------------------------------------------------
$molecule
0 1
C        -2.79889013270000   -1.36591428060000    0.18037181970000
C        -1.55114679100000   -1.33015984100000   -0.27132875140000
C        -0.61672787240000   -0.24104848760000   -0.09145166430000
C        -0.87857094970000    1.14675468060000    0.00325908110000
C        -2.18638280650000    1.85306396680000    0.00851047520000
N         0.25453860400000    1.82651304520000    0.05663782670000
N         1.24395076240000    0.94003155530000   -0.00186755010000
C         2.60477172340000    1.38446584280000    0.07166598990000
C         0.78096108780000   -0.33256589660000   -0.09041044690000
C         1.66561406510000   -1.46923835700000   -0.15270323650000
C         1.35108967190000   -2.70099823020000    0.23534313600000
H        -3.44141767090000   -2.20756213440000   -0.01635166750000
H        -3.21746791570000   -0.57570967370000    0.77788286750000
H        -1.16298682980000   -2.16864903810000   -0.83864760720000
H        -2.86753074190000    1.39261829890000   -0.70467940390000
H        -2.03003127290000    2.89638042950000   -0.25261634720000
H        -2.64130966580000    1.81118219150000    0.99805916320000
H         2.58463484340000    2.46499070590000    0.19735051110000
H         3.14550774330000    1.13984475390000   -0.84575636540000
H         3.11737526510000    0.92875100160000    0.92129376830000
H         2.65678561470000   -1.26735199300000   -0.54113177630000
H         0.39477103030000   -2.93513559000000    0.66908689460000
H         2.05321156260000   -3.51216079230000    0.14642028590000
$end

$rem
BASIS = 6-31G*
GUI = 2
METHOD = B3LYP
PRINT_ORBITALS false
MOLDEN_FORMAT false
--------------------------------------------------------------

             Standard Nuclear Orientation (Angstroms)
    I     Atom           X                Y                Z
 ----------------------------------------------------------------
    1      C       2.7720843963     1.3912693457     0.1681341646
    2      C       1.5234333674     1.3385957572    -0.2793826884
    3      C       0.6045517779     0.2368197666    -0.0966142193
    4      C       0.8855983404    -1.1473032634    -0.0030951109
    5      C       2.2029236233    -1.8357259855    -0.0023934014
    6      N      -0.2379574578    -1.8424492465     0.0539348450
    7      N      -1.2395484782    -0.9695226001    -0.0010490439
    8      C      -2.5939321980    -1.4324730548     0.0769530169
    9      C      -0.7942430927     0.3092818019    -0.0908598053
   10      C      -1.6945072271     1.4338044432    -0.1499265622
   11      C      -1.3954946013     2.6696665578     0.2373385273
   12      H       3.4024188322     2.2416301517    -0.0305562380
   13      H       3.2033964897     0.6067352264     0.7640588471
   14      H       1.1219795963     2.1718190889    -0.8452066207
   15      H       2.8753337242    -1.3659132081    -0.7177626327
   16      H       2.0599269079    -2.8810294487    -0.2632283493
   17      H       2.6605600234    -1.7878258481     0.9856317189
   18      H      -2.5586511061    -2.5126456585     0.2023263124
   19      H      -3.1410310085    -1.1950791936    -0.8385936747
   20      H      -3.1098401981    -0.9839380347     0.9283994571
   21      H      -2.6841353170     1.2184994051    -0.5350705085
   22      H      -0.4410031909     2.9167365335     0.6679217019
   23      H      -2.1088995174     3.4712016998     0.1509558513
 ----------------------------------------------------------------

    9    -459.6321977194      3.35e-06  Convergence criterion met
 Total energy in the final basis set =     -459.6321977194

                    Orbital Energies (a.u.)
 --------------------------------------------------------------

 Alpha MOs
 -- Occupied --
-14.4050 -14.3335 -10.2277 -10.2166 -10.2012 -10.1980 -10.1864 -10.1846
-10.1762 -10.1720 -10.1700  -1.0516  -0.8514  -0.8223  -0.7728  -0.7436
 -0.7292  -0.6722  -0.6220  -0.5942  -0.5468  -0.5437  -0.5042  -0.4819
 -0.4603  -0.4515  -0.4346  -0.4248  -0.4197  -0.4062  -0.3867  -0.3862
 -0.3819  -0.3597  -0.3445  -0.3050  -0.2916  -0.2723  -0.2249  -0.2060

          Ground-State Mulliken Net Atomic Charges

     Atom                 Charge (a.u.)
  ----------------------------------------
      1 C                    -0.361092
      2 C                    -0.126192
      3 C                    -0.056153
      4 C                     0.298080
      5 C                    -0.523989
      6 N                    -0.356739
      7 N                    -0.306753
      8 C                    -0.324786
      9 C                     0.333082
     10 C                    -0.112672
     11 C                    -0.350887
     12 H                     0.136618
     13 H                     0.142458
     14 H                     0.134484
     15 H                     0.164693
     16 H                     0.168242
     17 H                     0.161184
     18 H                     0.198016
     19 H                     0.168503
     20 H                     0.173059
     21 H                     0.133682
     22 H                     0.162202
     23 H                     0.144962
  ----------------------------------------
  Sum of atomic charges =     0.000000

                    Cartesian Multipole Moments
 -----------------------------------------------------------------
    Charge (ESU x 10^10)
                 0.0000
    Dipole Moment (Debye)
         X      -1.7565      Y       0.9388      Z      -0.0822
       Tot       1.9934
    Quadrupole Moments (Debye-Ang)
        XX     -55.9770     XY       0.6369     YY     -65.7742
        XZ       1.1464     YZ      -0.4433     ZZ     -67.5675

 Total job time:  29.55s(wall), 29.45s(cpu)
        *  Thank you very much for using Q-Chem.  Have a nice day.  *
