 Q-Chem 5.4, Q-Chem, Inc., Pleasanton, CA (2021)
 Q-Chem 5.4.2 for Intel X86 EM64T Linux

User input:
--------------------------------------------------------------
$molecule
0 1
C            2.70680226800000       -2.64029586730000        0.15903722730000
C            1.57827651150000       -2.02812610800000       -0.17725466190000
C            1.34665774640000       -0.59677283670000       -0.07760271450000
C            2.33946091970000        0.33991500750000       -0.06391620740000
S            1.74636198710000        1.94580848160000        0.02594105060000
C            0.13151593560000        1.38198594560000        0.05212075780000
C            0.04643824880000        0.01756051850000       -0.00922060930000
C           -1.18400569350000       -0.74304622810000        0.02597621210000
C           -2.41660550640000       -0.25692046430000        0.00981164650000
F           -2.77939718280000        1.02022149860000       -0.05035550760000
F           -3.50736901370000       -1.01955510810000        0.05130997760000
H            2.82183418630000       -3.70462371650000        0.04994568850000
H            3.54987008370000       -2.10733994990000        0.56375512830000
H            0.75423126950000       -2.61348504100000       -0.56234165980000
H            3.39622797280000        0.17662141770000       -0.12768939330000
H           -0.66701882140000        2.09233252560000        0.11946242090000
H           -1.10664335530000       -1.81760701100000        0.07956673140000
$end

$rem
BASIS = 6-31G*
GUI = 2
METHOD = B3LYP
PRINT_ORBITALS false
MOLDEN_FORMAT false
$end
--------------------------------------------------------------

             Standard Nuclear Orientation (Angstroms)
    I     Atom           X                Y                Z
 ----------------------------------------------------------------
    1      C       2.7342948073     2.4772069281    -0.1567136479
    2      C       1.5795246349     1.9154493346     0.1784709088
    3      C       1.2854386588     0.4955571713     0.0796294515
    4      C       2.2361879220    -0.4838162176     0.0680889765
    5      S       1.5732957839    -2.0622055468    -0.0213294746
    6      C      -0.0152079312    -1.4280688941    -0.0502371201
    7      C      -0.0403979001    -0.0611721416     0.0098998551
    8      C      -1.2362203177     0.7526787963    -0.0276385352
    9      C      -2.4889911954     0.3211378068    -0.0128279773
   10      F      -2.9075744420    -0.9387974034     0.0478417196
   11      F      -3.5451702539     1.1308783285    -0.0564722699
   12      H       2.8957832328     3.5355529275    -0.0483055731
   13      H       3.5537124739     1.9074138713    -0.5598172218
   14      H       0.7814383702     2.5367431297     0.5619288225
   15      H       3.2990153305    -0.3670099486     0.1332243397
   16      H      -0.8440595814    -2.1027383210    -0.1181416692
   17      H      -1.1116921764     1.8227620603    -0.0819736207
 ----------------------------------------------------------------

    9    -906.2679492551      5.17e-06  Convergence criterion met
 Total energy in the final basis set =     -906.2679492551

                    Orbital Energies (a.u.)
 --------------------------------------------------------------

 Alpha MOs
 -- Occupied --
-88.9127 -24.7454 -24.7358 -10.3573 -10.2121 -10.2104 -10.2081 -10.2060
-10.2012 -10.1978 -10.1846  -7.9744  -5.9382  -5.9346  -5.9319  -1.2860
 -1.2258  -0.8954  -0.8112  -0.7970  -0.7273  -0.7156  -0.6403  -0.6124
 -0.5831  -0.5771  -0.5427  -0.5199  -0.5158  -0.4812  -0.4643  -0.4422
 -0.4387  -0.4320  -0.4143  -0.3984  -0.3957  -0.3830  -0.3676  -0.3466
 -0.3055  -0.3011  -0.2239  -0.2177

          Ground-State Mulliken Net Atomic Charges

     Atom                 Charge (a.u.)
  ----------------------------------------
      1 C                    -0.343579
      2 C                    -0.103789
      3 C                     0.136547
      4 C                    -0.416799
      5 S                     0.278508
      6 C                    -0.428096
      7 C                     0.159463
      8 C                    -0.282367
      9 C                     0.546899
     10 F                    -0.237786
     11 F                    -0.247871
     12 H                     0.145175
     13 H                     0.143088
     14 H                     0.134187
     15 H                     0.173882
     16 H                     0.179924
     17 H                     0.162616
  ----------------------------------------
  Sum of atomic charges =     0.000000

                    Cartesian Multipole Moments
 -----------------------------------------------------------------
    Charge (ESU x 10^10)
                 0.0000
    Dipole Moment (Debye)
         X       0.9057      Y       0.6143      Z       0.0169
       Tot       1.0945
    Quadrupole Moments (Debye-Ang)
        XX     -66.8212     XY       1.7073     YY     -64.7271
        XZ      -0.3996     YZ       0.6139     ZZ     -71.2134

 Total job time:  33.79s(wall), 31.42s(cpu)
        *  Thank you very much for using Q-Chem.  Have a nice day.  *
