 Q-Chem 5.2, Q-Chem, Inc., Pleasanton, CA (2019)
 Q-Chem 5.2.1 for Intel X86 EM64T Linux

User input:
--------------------------------------------------------------
$molecule
0 1
C         2.81526306280000    0.77164810140000    0.44085071560000
C         2.21351784980000   -0.25862483490000   -0.13832348770000
C         0.79182972400000   -0.52636142670000   -0.12789328270000
N         0.35619375350000   -1.80080966100000   -0.26744868070000
N        -0.91393062980000   -1.84078793420000   -0.15787727430000
N        -1.36699612330000   -0.61213064270000    0.05792124590000
C        -2.76899251210000   -0.35938071480000    0.20199275530000
C        -0.33572331530000    0.27830485540000    0.07651338670000
C        -0.56448076280000    1.69665736960000    0.22554769520000
C         0.16976509180000    2.64387460430000   -0.34442887180000
H         3.88628197470000    0.87638230850000    0.41919152750000
H         2.26807681380000    1.53627450110000    0.96603668560000
H         2.78988685370000   -1.03654175760000   -0.62068532010000
H        -3.28294501320000   -1.31058440530000    0.07792184960000
H        -3.11289206490000    0.34481196440000   -0.55769792490000
H        -2.98930365190000    0.04422392400000    1.19254898860000
H        -1.42792528010000    1.96504666930000    0.82301213320000
H         1.01340749610000    2.40686912780000   -0.96936898390000
H        -0.05789690400000    3.68683502040000   -0.20848275390000
$end

$rem
BASIS = 6-31G*
GUI = 2
METHOD = B3LYP
PRINT_ORBITALS false
MOLDEN_FORMAT false
--------------------------------------------------------------

             Standard Nuclear Orientation (Angstroms)
    I     Atom           X                Y                Z
 ----------------------------------------------------------------
    1      C       2.8908726207     0.3163685326    -0.4478576127
    2      C       1.9625418633     1.0902391316     0.0983371175
    3      C       0.5384530990     0.8353683206     0.0992644587
    4      N      -0.3214066119     1.8770915632     0.1937455322
    5      N      -1.5229379614     1.4589794669     0.1025052142
    6      N      -1.5101139680     0.1413639276    -0.0561167216
    7      C      -2.7309555684    -0.5984255461    -0.1678768275
    8      C      -0.2298228068    -0.3251090563    -0.0546516182
    9      C       0.0600719622    -1.7373875714    -0.1423754352
   10      C       1.0829805086    -2.3366762025     0.4540489054
   11      H       3.9292635704     0.5995298796    -0.4387049496
   12      H       2.6508417955    -0.6147391286    -0.9329455959
   13      H       2.2251241938     2.0422507497     0.5396457433
   14      H      -3.5492196592     0.1129511611    -0.0745157973
   15      H      -2.8021775830    -1.3450557117     0.6250638902
   16      H      -2.7937374346    -1.0966311956    -1.1376628463
   17      H      -0.6518620609    -2.3204144073    -0.7148810339
   18      H       1.7875554732    -1.7887902193     1.0555880267
   19      H       1.2405714230    -3.3974114834     0.3641404609
 ----------------------------------------------------------------

    9    -436.3346890427      3.24e-06  Convergence criterion met
 Total energy in the final basis set =     -436.3346890427

                    Orbital Energies (a.u.)
 --------------------------------------------------------------

 Alpha MOs
 -- Occupied --
-14.4241 -14.3789 -14.3408 -10.2424 -10.2338 -10.2133 -10.2112 -10.1972
-10.1910 -10.1781  -1.1068  -0.9274  -0.8396  -0.7860  -0.7551  -0.7412
 -0.6546  -0.6091  -0.5919  -0.5517  -0.5257  -0.5038  -0.4820  -0.4562
 -0.4479  -0.4322  -0.4250  -0.4195  -0.3831  -0.3647  -0.3248  -0.3205
 -0.3115  -0.2690  -0.2536  -0.2175

          Ground-State Mulliken Net Atomic Charges

     Atom                 Charge (a.u.)
  ----------------------------------------
      1 C                    -0.353564
      2 C                    -0.096599
      3 C                     0.176028
      4 N                    -0.334736
      5 N                    -0.076316
      6 N                    -0.285194
      7 C                    -0.330380
      8 C                     0.297204
      9 C                    -0.134890
     10 C                    -0.330249
     11 H                     0.144021
     12 H                     0.149348
     13 H                     0.148827
     14 H                     0.205975
     15 H                     0.182616
     16 H                     0.178217
     17 H                     0.139327
     18 H                     0.169586
     19 H                     0.150780
  ----------------------------------------
  Sum of atomic charges =     0.000000

                    Cartesian Multipole Moments
 -----------------------------------------------------------------
    Charge (ESU x 10^10)
                 0.0000
    Dipole Moment (Debye)
         X      -0.5337      Y      -4.3836      Z      -0.4008
       Tot       4.4341
    Quadrupole Moments (Debye-Ang)
        XX     -50.4379     XY       5.3135     YY     -62.3568
        XZ       1.8491     YZ       0.5825     ZZ     -59.4431

 Total job time:  19.21s(wall), 19.14s(cpu)
        *  Thank you very much for using Q-Chem.  Have a nice day.  *
