 Q-Chem 5.2, Q-Chem, Inc., Pleasanton, CA (2019)
 Q-Chem 5.2.1 for Intel X86 EM64T Linux

User input:
--------------------------------------------------------------
$molecule
0 1
C         3.87143018480000    0.34661768800000    0.07473173410000
C         2.66211211040000    0.87430768470000   -0.07181539600000
C         1.38983331910000    0.16338495710000   -0.04351756830000
C         1.29075728350000   -1.22389698100000    0.06110756910000
C         0.05403455660000   -1.83676029080000    0.07861607970000
C        -1.12396186490000   -1.10722512300000   -0.00668222270000
C        -2.44727010080000   -1.81013676820000    0.03283464370000
C        -1.04363658840000    0.28912151590000   -0.10995245370000
C        -2.25636268760000    1.10220320620000   -0.21078014220000
C        -2.39056224530000    2.32500280170000    0.28357115960000
C         0.20768327530000    0.89477328520000   -0.13031374140000
H         4.75695799900000    0.95796487390000    0.03962577590000
H         4.03358655180000   -0.70534673530000    0.23557081460000
H         2.57394355670000    1.94362094390000   -0.22430220350000
H         2.18154351850000   -1.82921649620000    0.12309450590000
H        -0.00041980470000   -2.91366160530000    0.16083038660000
H        -2.30953150150000   -2.87228491350000    0.22055204490000
H        -2.97115531670000   -1.69739022440000   -0.91688956000000
H        -3.08060753110000   -1.39728060750000    0.81678982590000
H        -3.09178202300000    0.64363488980000   -0.72350974790000
H        -1.60092579640000    2.81161079920000    0.83153882200000
H        -3.30570472220000    2.88204565000000    0.17475351320000
H         0.26320555340000    1.96904574020000   -0.23515878980000
$end

$rem
BASIS = 6-31G*
GUI = 2
METHOD = B3LYP
PRINT_ORBITALS false
MOLDEN_FORMAT false
--------------------------------------------------------------

             Standard Nuclear Orientation (Angstroms)
    I     Atom           X                Y                Z
 ----------------------------------------------------------------
    1      C       3.8902814045     0.3184163533     0.0667870906
    2      C       2.6848554828     0.8550965675    -0.0791776100
    3      C       1.4072320395     0.1539248694    -0.0484888279
    4      C       1.2977105750    -1.2324147812     0.0581933075
    5      C       0.0563769310    -1.8358158766     0.0779161321
    6      C      -1.1161235569    -1.0974495771    -0.0071176508
    7      C      -2.4447015332    -1.7902061060     0.0348347444
    8      C      -1.0252817727     0.2980992080    -0.1124370948
    9      C      -2.2318918745     1.1202523565    -0.2130795909
   10      C      -2.3562297140     2.3447276946     0.2797001060
   11      C       0.2305905086     0.8941738178    -0.1350185367
   12      H       4.7803995417     0.9229516443     0.0298533162
   13      H       4.0446001287    -0.7345269957     0.2289261669
   14      H       2.6046637204     1.9248363732    -0.2330697675
   15      H       2.1839295054    -1.8444141909     0.1200555907
   16      H      -0.0061854358    -2.9121553592     0.1617026429
   17      H      -2.3148476999    -2.8531093646     0.2238931264
   18      H      -2.9687621768    -1.6747989543    -0.9144730017
   19      H      -3.0740100609    -1.3714438939     0.8189018489
   20      H      -3.0713450071     0.6673447426    -0.7242499604
   21      H      -1.5623056543     2.8260720548     0.8261191923
   22      H      -3.2672235361     2.9085720004     0.1711016574
   23      H       0.2941757341     1.9678447858    -0.2414332290
 ----------------------------------------------------------------

    8    -426.3611755605      5.35e-06  Convergence criterion met
 Total energy in the final basis set =     -426.3611755605

                    Orbital Energies (a.u.)
 --------------------------------------------------------------

 Alpha MOs
 -- Occupied --
-10.1918 -10.1888 -10.1887 -10.1882 -10.1862 -10.1822 -10.1815 -10.1814
-10.1805 -10.1791 -10.1755  -0.8664  -0.8055  -0.7818  -0.7469  -0.7257
 -0.6820  -0.6254  -0.6006  -0.5760  -0.5349  -0.5012  -0.4806  -0.4555
 -0.4480  -0.4287  -0.4258  -0.4175  -0.4063  -0.3847  -0.3715  -0.3661
 -0.3613  -0.3338  -0.3302  -0.3028  -0.2786  -0.2315  -0.2128

          Ground-State Mulliken Net Atomic Charges

     Atom                 Charge (a.u.)
  ----------------------------------------
      1 C                    -0.356312
      2 C                    -0.110811
      3 C                     0.183686
      4 C                    -0.179415
      5 C                    -0.190447
      6 C                     0.126454
      7 C                    -0.535916
      8 C                     0.112229
      9 C                    -0.129961
     10 C                    -0.337306
     11 C                    -0.268857
     12 H                     0.142297
     13 H                     0.140896
     14 H                     0.125252
     15 H                     0.124223
     16 H                     0.121065
     17 H                     0.156288
     18 H                     0.163106
     19 H                     0.168142
     20 H                     0.131821
     21 H                     0.144890
     22 H                     0.141884
     23 H                     0.126793
  ----------------------------------------
  Sum of atomic charges =     0.000000

                    Cartesian Multipole Moments
 -----------------------------------------------------------------
    Charge (ESU x 10^10)
                 0.0000
    Dipole Moment (Debye)
         X      -0.5445      Y      -0.2712      Z      -0.0199
       Tot       0.6086
    Quadrupole Moments (Debye-Ang)
        XX     -60.2859     XY       0.1729     YY     -59.7342
        XZ       0.9769     YZ       0.0055     ZZ     -69.4107

 Total job time:  22.81s(wall), 22.73s(cpu)
        *  Thank you very much for using Q-Chem.  Have a nice day.  *
