 Q-Chem 5.2, Q-Chem, Inc., Pleasanton, CA (2019)
 Q-Chem 5.2.1 for Intel X86 EM64T Linux

User input:
--------------------------------------------------------------
$molecule
0 1
C         3.50320882880000    0.66796725050000   -0.37139504520000
C         2.71869909670000   -0.20876646820000    0.24417689940000
C         1.26258098540000   -0.29780191990000    0.13305735030000
C         0.69751212130000   -1.57048206180000    0.11475445330000
C        -0.66598083580000   -1.71548831090000   -0.02178815550000
F        -1.19847186310000   -2.96180254480000   -0.05305152030000
C        -1.50187723280000   -0.62427156650000   -0.13865777720000
C        -0.96812610680000    0.65801733930000   -0.09467842070000
C        -1.84506145510000    1.81955480750000   -0.24676253350000
C        -3.09692680450000    1.88703272470000    0.18643509180000
C         0.42316713810000    0.83135844910000    0.06350076120000
N         0.94808071970000    2.10508871060000    0.15037289840000
H         4.57321406630000    0.64081204590000   -0.25011503430000
H         3.11854115750000    1.40833651270000   -1.05224594950000
H         3.16963164050000   -0.98027870680000    0.85738868520000
H         1.32525638910000   -2.44503574080000    0.18645469940000
H        -2.56012758190000   -0.77221080640000   -0.27966580420000
H        -1.41709842680000    2.66569561590000   -0.77045910320000
H        -3.55858828250000    1.07924315110000    0.72879082110000
H        -3.70461002020000    2.76076602830000    0.02434324690000
H         0.31388464070000    2.81467693480000    0.48016732880000
H         1.87256597860000    2.15709723400000    0.55098291100000
$end

$rem
BASIS = 6-31G*
GUI = 2
METHOD = B3LYP
PRINT_ORBITALS false
MOLDEN_FORMAT false
--------------------------------------------------------------

             Standard Nuclear Orientation (Angstroms)
    I     Atom           X                Y                Z
 ----------------------------------------------------------------
    1      C       3.4287778553    -0.8395592687     0.3655911988
    2      C       2.7062693480     0.0919576747    -0.2453948838
    3      C       1.2600956199     0.2819045871    -0.1311296728
    4      C       0.7851818286     1.5908130443    -0.1072947717
    5      C      -0.5646461235     1.8300439910     0.0324077488
    6      F      -1.0088779597     3.1103325709     0.0690477483
    7      C      -1.4744013851     0.7993524121     0.1471052268
    8      C      -1.0314427582    -0.5168650144     0.0976216207
    9      C      -1.9869807923    -1.6149713115     0.2473684015
   10      C      -3.2412389823    -1.5934330156    -0.1836220851
   11      C       0.3441051049    -0.7862219941    -0.0638701161
   12      N       0.7787715938    -2.0931306402    -0.1561991452
   13      H       4.4978642079    -0.8866401592     0.2423223265
   14      H       2.9945768623    -1.5537576720     1.0446081016
   15      H       3.2088605152     0.8323585166    -0.8567938531
   16      H       1.4722602477     2.4197209555    -0.1771721584
   17      H      -2.5195181035     1.0202096216     0.2906887273
   18      H      -1.6181734330    -2.4907776965     0.7672809192
   19      H      -3.6463687798    -0.7534672576    -0.7222615055
   20      H      -3.9080942974    -2.4232475874    -0.0233900416
   21      H       0.0960778557    -2.7555766999    -0.4872262720
   22      H       1.6966971141    -2.2080273080    -0.5587879648
 ----------------------------------------------------------------

    9    -541.6269638727      1.62e-06  Convergence criterion met
 Total energy in the final basis set =     -541.6269638727

                    Orbital Energies (a.u.)
 --------------------------------------------------------------

 Alpha MOs
 -- Occupied --
-24.6889 -14.3404 -10.2532 -10.2295 -10.1971 -10.1951 -10.1941 -10.1937
-10.1873 -10.1864 -10.1835 -10.1834  -1.1991  -0.9302  -0.8500  -0.8106
 -0.7759  -0.7279  -0.7192  -0.6416  -0.6209  -0.5810  -0.5559  -0.5360
 -0.5163  -0.5036  -0.4711  -0.4645  -0.4560  -0.4443  -0.4312  -0.4271
 -0.4049  -0.3888  -0.3829  -0.3683  -0.3598  -0.3335  -0.3062  -0.3051
 -0.2768  -0.2283  -0.1933

          Ground-State Mulliken Net Atomic Charges

     Atom                 Charge (a.u.)
  ----------------------------------------
      1 C                    -0.362688
      2 C                    -0.144374
      3 C                     0.143008
      4 C                    -0.278005
      5 C                     0.382914
      6 F                    -0.310602
      7 C                    -0.277303
      8 C                     0.142678
      9 C                    -0.152508
     10 C                    -0.336529
     11 C                     0.190015
     12 N                    -0.816053
     13 H                     0.144859
     14 H                     0.168022
     15 H                     0.139196
     16 H                     0.139525
     17 H                     0.141785
     18 H                     0.141143
     19 H                     0.147731
     20 H                     0.143869
     21 H                     0.326124
     22 H                     0.327192
  ----------------------------------------
  Sum of atomic charges =     0.000000

                    Cartesian Multipole Moments
 -----------------------------------------------------------------
    Charge (ESU x 10^10)
                 0.0000
    Dipole Moment (Debye)
         X       0.8207      Y      -2.3669      Z      -1.0280
       Tot       2.7078
    Quadrupole Moments (Debye-Ang)
        XX     -61.8056     XY       2.2803     YY     -67.5471
        XZ      -1.2585     YZ       0.7825     ZZ     -71.5825

 Total job time:  27.35s(wall), 27.25s(cpu)
        *  Thank you very much for using Q-Chem.  Have a nice day.  *
