 Q-Chem 5.2, Q-Chem, Inc., Pleasanton, CA (2019)
 Q-Chem 5.2.1 for Intel X86 EM64T Linux

User input:
--------------------------------------------------------------
$molecule
0 1
C        -4.49681117670000   -0.06372923230000    0.74436773410000
C        -3.59887050890000   -0.93568603950000    0.30249725240000
C        -2.20413090420000   -0.66092407280000   -0.02010040610000
C        -1.44057237210000   -1.64995603330000   -0.64266052960000
C        -0.11713950460000   -1.42550242350000   -0.95750885390000
C         0.49703725120000   -0.20837127010000   -0.68335352330000
C         1.96806164980000   -0.06614642360000   -0.97736793030000
C         2.75906373450000   -0.46828202050000    0.26432823820000
O         3.45576481180000   -1.43729028870000    0.32702816290000
O         2.60898614470000    0.35704762310000    1.30974952560000
C        -0.25336855600000    0.79344135030000   -0.05572214380000
C         0.28333530790000    2.12376773560000    0.29409713560000
C         0.82281701550000    2.98184612530000   -0.55953148380000
C        -1.58089603910000    0.54762329580000    0.27531444290000
H        -5.50992394800000   -0.36203080490000    0.95217352310000
H        -4.26979862330000    0.97527357460000    0.91157316250000
H        -3.90069166210000   -1.96329961560000    0.14053475210000
H        -1.89094306710000   -2.60404080680000   -0.87456899970000
H         0.46250238360000   -2.20968212440000   -1.42176418330000
H         2.23500519320000    0.95725965980000   -1.23955466970000
H         2.25570214400000   -0.73207784030000   -1.79041277090000
H         1.99428556260000    1.08456817660000    1.11636932860000
H         0.12868182960000    2.42123835570000    1.32641002470000
H         0.92766357230000    2.75732801470000   -1.60861318090000
H         1.15595912280000    3.95699556460000   -0.24665632040000
H        -2.13463856480000    1.32975241130000    0.77240188540000
$end

$rem
BASIS = 6-31G*
GUI = 2
METHOD = B3LYP
PRINT_ORBITALS false
MOLDEN_FORMAT false
--------------------------------------------------------------

             Standard Nuclear Orientation (Angstroms)
    I     Atom           X                Y                Z
 ----------------------------------------------------------------
    1      C       4.4638540803    -0.3578198773     0.6069972459
    2      C       3.6332462775     0.6273139042     0.2884729145
    3      C       2.2123627630     0.5046193350    -0.0130200925
    4      C       1.5210895216     1.6137683260    -0.5036490561
    5      C       0.1757427611     1.5342042199    -0.7946732682
    6      C      -0.5335756254     0.3499243462    -0.6269500300
    7      C      -2.0183332469     0.3618536960    -0.8837333156
    8      C      -2.7402678358     0.6943931715     0.4191230301
    9      O      -3.3493675358     1.7056413810     0.6053361067
   10      O      -2.6352752552    -0.2465178024     1.3679439136
   11      C       0.1436281196    -0.7713375814    -0.1321517602
   12      C      -0.4963392487    -2.0822063033     0.0964479303
   13      C      -1.1289048945    -2.7975105692    -0.8223672668
   14      C       1.4952966771    -0.6726549230     0.1770323268
   15      H       5.5037658354    -0.1680651717     0.8098303171
   16      H       4.1527429360    -1.3863103913     0.6736028461
   17      H       4.0180199374     1.6377721257     0.2233504534
   18      H       2.0457352043     2.5464727138    -0.6509667023
   19      H      -0.3459479584     2.4083822973    -1.1553767684
   20      H      -2.3787185938    -0.6024314657    -1.2409969184
   21      H      -2.2681580078     1.1316030363    -1.6133340012
   22      H      -2.0904071784    -0.9978504289     1.0795744888
   23      H      -0.3417862528    -2.4990355449     1.0866212100
   24      H      -1.2405397321    -2.4553198587    -1.8384463830
   25      H      -1.5365571560    -3.7693601038    -0.6007390276
   26      H       1.9921972014    -1.5461323049     0.5714683747
 ----------------------------------------------------------------

    9    -614.9111531311      4.69e-06  Convergence criterion met
 Total energy in the final basis set =     -614.9111531311

                    Orbital Energies (a.u.)
 --------------------------------------------------------------

 Alpha MOs
 -- Occupied --
-19.1843 -19.1247 -10.3111 -10.2165 -10.2126 -10.2116 -10.2099 -10.2049
-10.2044 -10.1989 -10.1978 -10.1974 -10.1965 -10.1877  -1.0965  -1.0141
 -0.8853  -0.8254  -0.8048  -0.7688  -0.7493  -0.7102  -0.6399  -0.6300
 -0.6142  -0.5924  -0.5560  -0.5251  -0.5088  -0.4995  -0.4835  -0.4670
 -0.4537  -0.4492  -0.4423  -0.4325  -0.4142  -0.4019  -0.3964  -0.3851
 -0.3724  -0.3682  -0.3562  -0.3445  -0.3194  -0.3086  -0.2957  -0.2654
 -0.2550  -0.2278

          Ground-State Mulliken Net Atomic Charges

     Atom                 Charge (a.u.)
  ----------------------------------------
      1 C                    -0.349169
      2 C                    -0.115929
      3 C                     0.183336
      4 C                    -0.188729
      5 C                    -0.175977
      6 C                     0.114762
      7 C                    -0.472884
      8 C                     0.599152
      9 O                    -0.435314
     10 O                    -0.571738
     11 C                     0.095171
     12 C                    -0.235011
     13 C                    -0.304858
     14 C                    -0.235814
     15 H                     0.148493
     16 H                     0.144266
     17 H                     0.131603
     18 H                     0.135265
     19 H                     0.143357
     20 H                     0.170967
     21 H                     0.180647
     22 H                     0.420963
     23 H                     0.163386
     24 H                     0.163614
     25 H                     0.160393
     26 H                     0.130045
  ----------------------------------------
  Sum of atomic charges =     0.000000

                    Cartesian Multipole Moments
 -----------------------------------------------------------------
    Charge (ESU x 10^10)
                -0.0000
    Dipole Moment (Debye)
         X       3.0689      Y      -3.0825      Z      -2.0009
       Tot       4.7878
    Quadrupole Moments (Debye-Ang)
        XX     -89.3670     XY      11.2078     YY     -75.8085
        XZ       9.1552     YZ      -4.4250     ZZ     -83.9027

 Total job time:  39.96s(wall), 39.83s(cpu)
        *  Thank you very much for using Q-Chem.  Have a nice day.  *
