 Q-Chem 5.2, Q-Chem, Inc., Pleasanton, CA (2019)
 Q-Chem 5.2.1 for Intel X86 EM64T Linux

User input:
--------------------------------------------------------------
$molecule
0 1
C         3.15213297720000   -0.35033576210000   -0.00596089060000
C         1.92720832950000   -0.81440716150000   -0.23633019070000
C         0.71788511500000   -0.05344143720000   -0.07625409990000
S         0.77369980510000    1.67909277940000    0.08608791440000
C        -0.94241609120000    1.76970626580000    0.09183250790000
C        -1.53784887390000    0.55592585060000   -0.03068939240000
C        -3.01589127280000    0.34560641280000   -0.04633600840000
C        -0.58524271140000   -0.50537207270000   -0.11676571960000
C        -0.99203044430000   -1.89831834260000   -0.21520830590000
C        -0.39870487280000   -2.91695738230000    0.39357382360000
H         4.02551015140000   -0.95848323850000   -0.16163899070000
H         3.31586638310000    0.65369130850000    0.34983902440000
H         1.78365166510000   -1.82941240360000   -0.58386936670000
H        -1.41468027030000    2.72772595320000    0.18791818580000
H        -3.53434464680000    1.29045481170000    0.09533009230000
H        -3.30985027100000   -0.34064012190000    0.74688067850000
H        -3.32965768140000   -0.08319274880000   -0.99808128160000
H        -1.87748948230000   -2.07493716860000   -0.81389472590000
H         0.44798006980000   -2.77947795130000    1.04472067380000
H        -0.75774256910000   -3.92594614830000    0.27997727210000
$end

$rem
BASIS = 6-31G*
GUI = 2
METHOD = B3LYP
PRINT_ORBITALS false
MOLDEN_FORMAT false
--------------------------------------------------------------

             Standard Nuclear Orientation (Angstroms)
    I     Atom           X                Y                Z
 ----------------------------------------------------------------
    1      C       3.1927161141     0.1370501056     0.0168951117
    2      C       1.9931490433     0.6646253981     0.2439982252
    3      C       0.7460271534    -0.0316244757     0.0794414554
    4      S       0.7112639972    -1.7645567165    -0.0845170537
    5      C      -1.0072163263    -1.7648926109    -0.0956003191
    6      C      -1.5384485986    -0.5216170112     0.0263536362
    7      C      -3.0034445804    -0.2339601739     0.0376996799
    8      C      -0.5316826993     0.4881000037     0.1164363248
    9      C      -0.8650454115     1.9004054619     0.2150725668
   10      C      -0.2171446028     2.8870000196    -0.3908417251
   11      H       4.0963439367     0.6983438275     0.1758694128
   12      H       3.3045894283    -0.8738817331    -0.3394386437
   13      H       1.9020268309     1.6854675511     0.5921442825
   14      H      -1.5288496838    -2.6966976445    -0.1941175933
   15      H      -3.5703697054    -1.1501461386    -0.1065253616
   16      H      -3.2584858122     0.4674703805    -0.7557031554
   17      H      -3.2972093064     0.2099009130     0.9889235056
   18      H      -1.7418603130     2.1227726190     0.8112317931
   19      H       0.6231687573     2.7058006461    -1.0395392280
   20      H      -0.5230386387     3.9133567401    -0.2773018868
 ----------------------------------------------------------------

    9    -747.1181085896      4.27e-06  Convergence criterion met
 Total energy in the final basis set =     -747.1181085896

                    Orbital Energies (a.u.)
 --------------------------------------------------------------

 Alpha MOs
 -- Occupied --
-88.8990 -10.2135 -10.2042 -10.1942 -10.1928 -10.1920 -10.1916 -10.1852
-10.1823 -10.1767  -7.9609  -5.9249  -5.9212  -5.9179  -0.8878  -0.7949
 -0.7929  -0.7510  -0.7087  -0.6693  -0.6190  -0.5856  -0.5362  -0.5195
 -0.4861  -0.4630  -0.4398  -0.4278  -0.4195  -0.4128  -0.4002  -0.3742
 -0.3669  -0.3629  -0.3536  -0.3280  -0.2922  -0.2894  -0.2299  -0.2041

          Ground-State Mulliken Net Atomic Charges

     Atom                 Charge (a.u.)
  ----------------------------------------
      1 C                    -0.377239
      2 C                    -0.052673
      3 C                    -0.215903
      4 S                     0.245893
      5 C                    -0.408200
      6 C                     0.167546
      7 C                    -0.521385
      8 C                     0.099636
      9 C                    -0.123722
     10 C                    -0.342457
     11 H                     0.143809
     12 H                     0.153474
     13 H                     0.147222
     14 H                     0.163256
     15 H                     0.156890
     16 H                     0.167856
     17 H                     0.161863
     18 H                     0.134475
     19 H                     0.156850
     20 H                     0.142808
  ----------------------------------------
  Sum of atomic charges =     0.000000

                    Cartesian Multipole Moments
 -----------------------------------------------------------------
    Charge (ESU x 10^10)
                 0.0000
    Dipole Moment (Debye)
         X      -1.1069      Y       0.5347      Z       0.0665
       Tot       1.2311
    Quadrupole Moments (Debye-Ang)
        XX     -61.1679     XY       1.9340     YY     -61.8306
        XZ      -1.0054     YZ       1.0529     ZZ     -69.6399

 Total job time:  22.34s(wall), 22.26s(cpu)
        *  Thank you very much for using Q-Chem.  Have a nice day.  *
