 Q-Chem 5.2, Q-Chem, Inc., Pleasanton, CA (2019)
 Q-Chem 5.2.1 for Intel X86 EM64T Linux

User input:
--------------------------------------------------------------
$molecule
0 1
C        -3.89239731000000    1.11151268940000    0.44963540530000
C        -3.28103570840000    0.02861147550000   -0.01747576690000
C        -1.84635005480000   -0.19872712570000   -0.10369730240000
C        -1.37562765390000   -1.44021987550000   -0.53597890340000
C        -0.02549103900000   -1.70309064000000   -0.57972827480000
C         0.92659124280000   -0.74312069300000   -0.22683174110000
N         2.27444081280000   -1.08880430000000   -0.28132068360000
C         3.13059148760000   -0.87999870550000    0.86984645830000
C         0.47223492230000    0.54565377240000    0.11906373710000
C         1.33744462060000    1.71063309920000    0.31059715510000
C         2.45590853830000    1.95916591320000   -0.35847902980000
C        -0.89710748120000    0.76989898710000    0.20993146440000
H        -4.96647293300000    1.18118602560000    0.47361827240000
H        -3.35788386920000    1.96628054070000    0.82714393450000
H        -3.88549260150000   -0.79773680610000   -0.37349461180000
H        -2.07914970830000   -2.21265071500000   -0.81325185430000
H         0.31642585190000   -2.68351416380000   -0.88686008030000
H         2.38846371020000   -2.02928686880000   -0.64402736810000
H         3.02951521590000    0.14073287850000    1.22785694600000
H         4.16449209370000   -1.04522423530000    0.56747930750000
H         2.89247862890000   -1.56420334210000    1.69482956590000
H         0.95132125000000    2.45549125530000    0.99750438460000
H         2.85067827060000    1.26326152930000   -1.07850609140000
H         3.00821045930000    2.87248162570000   -0.21328367820000
H        -1.22646798430000    1.75684822980000    0.49926320720000
$end

$rem
BASIS = 6-31G*
GUI = 2
METHOD = B3LYP
PRINT_ORBITALS false
MOLDEN_FORMAT false
--------------------------------------------------------------

             Standard Nuclear Orientation (Angstroms)
    I     Atom           X                Y                Z
 ----------------------------------------------------------------
    1      C       3.9630329852    -0.9601412400     0.3427708250
    2      C       3.3013849816     0.1492189731     0.0326535388
    3      C       1.8578975023     0.3149239249    -0.0468806258
    4      C       1.3279324361     1.5825742169    -0.2957801534
    5      C      -0.0335119174     1.7811271947    -0.3262746200
    6      C      -0.9380991033     0.7322225089    -0.1417213292
    7      N      -2.3014774758     1.0142678443    -0.1702608920
    8      C      -3.1594369688     0.5902641533     0.9187321848
    9      C      -0.4209416144    -0.5697838087     0.0143256222
   10      C      -1.2260524941    -1.7921702689     0.0101402441
   11      C      -2.3216923710    -1.9917478020    -0.7110636829
   12      C       0.9570786029    -0.7364124322     0.0976122399
   13      H       5.0389135705    -0.9788006980     0.3774231885
   14      H       3.4695836703    -1.8880416942     0.5759100717
   15      H       3.8659066939     1.0492997722    -0.1821459666
   16      H       1.9932475950     2.4224180667    -0.4389269993
   17      H      -0.4226739193     2.7784929645    -0.4883913978
   18      H      -2.4603027586     1.9920650343    -0.3887832180
   19      H      -3.0092684133    -0.4666811529     1.1202189419
   20      H      -4.1968284755     0.7475833032     0.6242064988
   21      H      -2.9676439519     1.1521240190     1.8422903996
   22      H      -0.8097424491    -2.6125412025     0.5840949024
   23      H      -2.7436623305    -1.2150962096    -1.3253263954
   24      H      -2.8270010293    -2.9430078940    -0.7167284937
   25      H       1.3342618932    -1.7381417390     0.2408992507
 ----------------------------------------------------------------

    8    -481.6969474351      9.31e-06  Convergence criterion met
 Total energy in the final basis set =     -481.6969474351

                    Orbital Energies (a.u.)
 --------------------------------------------------------------

 Alpha MOs
 -- Occupied --
-14.3388 -10.2213 -10.2044 -10.1877 -10.1854 -10.1822 -10.1816 -10.1812
-10.1803 -10.1793 -10.1714 -10.1690  -0.9326  -0.8513  -0.7944  -0.7734
 -0.7265  -0.7215  -0.6693  -0.6219  -0.6100  -0.5737  -0.5350  -0.5218
 -0.4851  -0.4774  -0.4545  -0.4398  -0.4331  -0.4254  -0.4230  -0.4011
 -0.3881  -0.3829  -0.3680  -0.3604  -0.3440  -0.3325  -0.3102  -0.2819
 -0.2525  -0.2268  -0.1874

          Ground-State Mulliken Net Atomic Charges

     Atom                 Charge (a.u.)
  ----------------------------------------
      1 C                    -0.358771
      2 C                    -0.116428
      3 C                     0.189101
      4 C                    -0.202904
      5 C                    -0.191942
      6 C                     0.263396
      7 N                    -0.630999
      8 C                    -0.319833
      9 C                     0.157538
     10 C                    -0.155235
     11 C                    -0.334865
     12 C                    -0.275391
     13 H                     0.138437
     14 H                     0.137496
     15 H                     0.121180
     16 H                     0.125090
     17 H                     0.114007
     18 H                     0.310303
     19 H                     0.182364
     20 H                     0.150511
     21 H                     0.139219
     22 H                     0.129381
     23 H                     0.166220
     24 H                     0.137531
     25 H                     0.124593
  ----------------------------------------
  Sum of atomic charges =     0.000000

                    Cartesian Multipole Moments
 -----------------------------------------------------------------
    Charge (ESU x 10^10)
                 0.0000
    Dipole Moment (Debye)
         X      -1.3220      Y       0.9791      Z       0.5496
       Tot       1.7344
    Quadrupole Moments (Debye-Ang)
        XX     -66.1843     XY      -1.8204     YY     -63.7657
        XZ      -0.9578     YZ      -2.2033     ZZ     -75.3811

 Total job time:  28.11s(wall), 27.95s(cpu)
        *  Thank you very much for using Q-Chem.  Have a nice day.  *
