 Q-Chem 5.2, Q-Chem, Inc., Pleasanton, CA (2019)
 Q-Chem 5.2.1 for Intel X86 EM64T Linux

User input:
--------------------------------------------------------------
$molecule
0 1
C         2.14071850740000   -6.47925624610000    0.51897902180000
O         2.73734287680000   -5.41318497490000   -0.17714520340000
C         2.15883128660000   -4.18096348500000   -0.09964754060000
C         1.00583245300000   -3.88165501260000    0.61736162350000
C         0.50960019520000   -2.59041173460000    0.62784401600000
C         1.14008697600000   -1.57527410720000   -0.08360723990000
N         0.63592573390000   -0.26507957650000   -0.06818019400000
C        -0.73038103490000   -0.03236519760000   -0.12333665270000
C        -1.29536430400000    1.07978944910000    0.50972086330000
C        -2.65026849280000    1.31494052360000    0.45367786050000
C        -3.50258472400000    0.44778914800000   -0.23657859350000
C        -4.93654804460000    0.63662808960000   -0.33622623520000
C        -5.68011493380000    1.61553268380000    0.16032748760000
F        -5.28633125890000    2.66653796150000    0.87470734680000
F        -7.00397518640000    1.67941143700000   -0.00252882690000
C        -2.93346388940000   -0.66445320650000   -0.86532328130000
C        -1.57972883380000   -0.90307506930000   -0.81400175230000
C         1.54091347540000    0.80635472110000    0.00420948450000
C         1.33830645200000    1.96193579480000   -0.74247688890000
C         2.22884065100000    3.01830424110000   -0.67532014830000
C         3.35478505990000    2.93207026590000    0.13586005280000
O         4.29785513530000    3.90651051460000    0.27551223730000
C         4.13752839220000    5.10330308220000   -0.44516706720000
C         3.56554422890000    1.76827660400000    0.87803183710000
C         2.67171147890000    0.72358629760000    0.81771437440000
C         2.29664400220000   -1.87981609430000   -0.80288150310000
C         2.79909033810000   -3.16099429390000   -0.80630712630000
H         2.76234836640000   -7.34952012290000    0.31434969760000
H         1.12248559710000   -6.67206985300000    0.16518884820000
H         2.12156458620000   -6.29537516610000    1.59826028550000
H         0.48700554760000   -4.64059874080000    1.18125053730000
H        -0.38000164110000   -2.36716401150000    1.19823372850000
H        -0.65640650950000    1.75564026060000    1.05813749920000
H        -3.04854658960000    2.17774471390000    0.96170961870000
H        -5.48357974660000   -0.11400335630000   -0.88890059310000
H        -3.56933276860000   -1.34587845170000   -1.41183028360000
H        -1.16252449980000   -1.76205983340000   -1.31801986170000
H         0.47299907550000    2.03597539980000   -1.38458358950000
H         2.03482356790000    3.89780380550000   -1.26851835320000
H         4.99063595680000    5.72484228380000   -0.17774210170000
H         3.21315976000000    5.62027372210000   -0.16719385430000
H         4.14439327510000    4.92702800100000   -1.52588144170000
H         4.44103236510000    1.71230568560000    1.50497416540000
H         2.84258415450000   -0.16839361450000    1.40148973790000
H         2.79785864050000   -1.10118264550000   -1.35795427510000
H         3.69186346870000   -3.40408297000000   -1.35998422400000
$end

$rem
BASIS = 6-31G*
GUI = 2
METHOD = B3LYP
PRINT_ORBITALS false
MOLDEN_FORMAT false
--------------------------------------------------------------

             Standard Nuclear Orientation (Angstroms)
    I     Atom           X                Y                Z
 ----------------------------------------------------------------
    1      C      -4.5647802406    -4.9993976601    -0.5082114177
    2      O      -4.6639066789    -3.7754943261     0.1768375649
    3      C      -3.6219591673    -2.8996255270     0.0977769691
    4      C      -2.4455271295    -3.1169916371    -0.6106393264
    5      C      -1.4539483787    -2.1524888383    -0.6237339575
    6      C      -1.6052475464    -0.9605172423     0.0766182033
    7      N      -0.5985016358     0.0178294991     0.0585465366
    8      C       0.7392799723    -0.3427023873     0.1244975145
    9      C       1.7218359142     0.4250265600    -0.5095623845
   10      C       3.0502796795     0.0714910972    -0.4428387321
   11      C       3.4569432274    -1.0669533954     0.2595979801
   12      C       4.8375207509    -1.4952807311     0.3708724071
   13      C       5.9256242585    -0.9221716802    -0.1243934765
   14      F       6.0124689662     0.1909368709    -0.8479013272
   15      F       7.1535155331    -1.4172992871     0.0497912337
   16      C       2.4706184060    -1.8330660071     0.8893092433
   17      C       1.1417550765    -1.4831310811     0.8273359233
   18      C      -0.9709605071     1.3691484665    -0.0276275282
   19      C      -0.3071764023     2.3399841087     0.7145493927
   20      C      -0.6728530295     3.6716140821     0.6338171183
   21      C      -1.7266772467     4.0579564527    -0.1867890728
   22      O      -2.1739621101     5.3365769125    -0.3400328945
   23      C      -1.5311544377     6.3623188585     0.3755420707
   24      C      -2.4013299335     3.0831173782    -0.9244791182
   25      C      -2.0277266171     1.7606505949    -0.8506198822
   26      C      -2.7871159098    -0.7463932280     0.7872964149
   27      C      -3.7800799552    -1.6992147681     0.7932253138
   28      H      -5.4949750015    -5.5274516396    -0.3043664798
   29      H      -3.7230316111    -5.5979382122    -0.1444102552
   30      H      -4.4641549854    -4.8497529626    -1.5882615059
   31      H      -2.2891359038    -4.0282957875    -1.1658097304
   32      H      -0.5493873994    -2.3273248448    -1.1874512649
   33      H       1.4279457977     1.3016207736    -1.0672481144
   34      H       3.7762887936     0.6837147662    -0.9520005195
   35      H       5.0165896641    -2.4012337189     0.9324093202
   36      H       2.7593794637    -2.7134444010     1.4450883676
   37      H       0.4001840496    -2.0839935377     1.3322965715
   38      H       0.5058519090     2.0502872906     1.3638570643
   39      H      -0.1316453679     4.3940429195     1.2239332634
   40      H      -2.0438597002     7.2817204626     0.0972371796
   41      H      -0.4736560414     6.4421399686     0.1029419058
   42      H      -1.6174430957     6.2144451981     1.4570924570
   43      H      -3.2161200045     3.3936157087    -1.5588109165
   44      H      -2.5532016501     1.0172761096    -1.4310418616
   45      H      -2.9192159400     0.1753359586     1.3336999582
   46      H      -4.6957364102    -1.5412099859     1.3403103537
 ----------------------------------------------------------------

    9   -1254.6053489434      4.63e-06  Convergence criterion met
 Total energy in the final basis set =    -1254.6053489434

                    Orbital Energies (a.u.)
 --------------------------------------------------------------

 Alpha MOs
 -- Occupied --
-24.7358 -24.7250 -19.1756 -19.1754 -14.3613 -10.3457 -10.2418 -10.2416
-10.2394 -10.2390 -10.2236 -10.2184 -10.2182 -10.1953 -10.1935 -10.1864
-10.1861 -10.1856 -10.1853 -10.1853 -10.1850 -10.1848 -10.1825 -10.1821
-10.1819 -10.1799 -10.1797  -1.2753  -1.2149  -1.0657  -1.0655  -0.9749
 -0.8616  -0.8576  -0.8417  -0.7979  -0.7675  -0.7555  -0.7512  -0.7478
 -0.7454  -0.7213  -0.7036  -0.6798  -0.6427  -0.6211  -0.6198  -0.6113
 -0.5993  -0.5977  -0.5714  -0.5628  -0.5423  -0.5405  -0.5300  -0.5203
 -0.5128  -0.5096  -0.4871  -0.4803  -0.4702  -0.4700  -0.4683  -0.4506
 -0.4489  -0.4468  -0.4401  -0.4324  -0.4279  -0.4258  -0.4248  -0.4221
 -0.4177  -0.4138  -0.4071  -0.3987  -0.3901  -0.3814  -0.3798  -0.3764
 -0.3663  -0.3623  -0.3578  -0.3410  -0.3369  -0.3257  -0.3255  -0.3222
 -0.3076  -0.2679  -0.2593  -0.2497  -0.2493  -0.2240  -0.2201  -0.1659

          Ground-State Mulliken Net Atomic Charges

     Atom                 Charge (a.u.)
  ----------------------------------------
      1 C                    -0.213302
      2 O                    -0.507016
      3 C                     0.378910
      4 C                    -0.205746
      5 C                    -0.174049
      6 C                     0.273028
      7 N                    -0.655771
      8 C                     0.306364
      9 C                    -0.181063
     10 C                    -0.206062
     11 C                     0.197350
     12 C                    -0.298468
     13 C                     0.533340
     14 F                    -0.239816
     15 F                    -0.254296
     16 C                    -0.205890
     17 C                    -0.181165
     18 C                     0.272696
     19 C                    -0.173551
     20 C                    -0.205625
     21 C                     0.379063
     22 O                    -0.507030
     23 C                    -0.213463
     24 C                    -0.184021
     25 C                    -0.164688
     26 C                    -0.165112
     27 C                    -0.184139
     28 H                     0.168754
     29 H                     0.148900
     30 H                     0.149602
     31 H                     0.131938
     32 H                     0.147888
     33 H                     0.147353
     34 H                     0.137403
     35 H                     0.154856
     36 H                     0.125800
     37 H                     0.146461
     38 H                     0.148052
     39 H                     0.132238
     40 H                     0.168746
     41 H                     0.149466
     42 H                     0.149467
     43 H                     0.138349
     44 H                     0.147895
     45 H                     0.147975
     46 H                     0.138380
  ----------------------------------------
  Sum of atomic charges =     0.000000

                    Cartesian Multipole Moments
 -----------------------------------------------------------------
    Charge (ESU x 10^10)
                 0.0000
    Dipole Moment (Debye)
         X      -1.3021      Y      -0.3322      Z       0.3754
       Tot       1.3953
    Quadrupole Moments (Debye-Ang)
        XX    -165.2990     XY       6.6628     YY    -124.0499
        XZ       4.1830     YZ       7.3638     ZZ    -152.4504

 Total job time:  141.63s(wall), 140.97s(cpu)
        *  Thank you very much for using Q-Chem.  Have a nice day.  *
