 Q-Chem 5.2, Q-Chem, Inc., Pleasanton, CA (2019)
 Q-Chem 5.2.1 for Intel X86 EM64T Linux

User input:
--------------------------------------------------------------
$molecule
0 1
C        -0.84303420070000   -2.52469856710000   -0.71722445270000
C        -1.53912260970000   -1.69473515790000    0.04780026660000
C        -1.38517629140000   -0.25527080740000    0.08707883580000
C        -2.43000948510000    0.65996287080000    0.31958566370000
N        -2.01580395750000    1.90464655100000    0.20344864380000
N        -0.72709160420000    1.84383773630000   -0.09674506280000
C         0.03188725100000    3.04946064160000   -0.25681341880000
C        -0.27954286120000    0.56087657770000   -0.17169492520000
C         1.11439965010000    0.28756216500000   -0.43212010570000
C         1.81460062580000   -0.71379548860000    0.08022772140000
F         1.38845373560000   -1.63686150220000    0.92755193680000
F         3.10071541940000   -0.92319837370000   -0.19629176200000
H        -1.03340285480000   -3.58345926240000   -0.71514499090000
H        -0.06820856830000   -2.17981854230000   -1.38128608340000
H        -2.34038376450000   -2.07532667040000    0.66837348240000
H        -3.45443079880000    0.44596834880000    0.54948865800000
H        -0.64129948780000    3.88178616290000   -0.06283330230000
H         0.42128534230000    3.13321828280000   -1.27385922620000
H         0.86334990140000    3.08231598550000    0.44960891360000
H         1.65197406840000    0.97399104580000   -1.06988531000000
$end

$rem
BASIS = 6-31G*
GUI = 2
METHOD = B3LYP
PRINT_ORBITALS false
MOLDEN_FORMAT false
--------------------------------------------------------------

             Standard Nuclear Orientation (Angstroms)
    I     Atom           X                Y                Z
 ----------------------------------------------------------------
    1      C       1.3170780198    -2.3047340034    -0.7871330681
    2      C       0.2362172120    -2.2705122590    -0.0195329502
    3      C      -0.7046834172    -1.1726682561     0.0625916039
    4      C      -2.0873136404    -1.3128756922     0.2907670939
    5      N      -2.7080118912    -0.1535876540     0.2195181224
    6      N      -1.7792330484     0.7525674050    -0.0466516977
    7      C      -2.1348567151     2.1372481494    -0.1533682138
    8      C      -0.5391938416     0.2004852133    -0.1436811415
    9      C       0.6163658891     1.0357861308    -0.3729230521
   10      C       1.8254884647     0.8378931891     0.1314179373
   11      F       2.2046133845    -0.1375288573     0.9416194493
   12      F       2.8605400776     1.6393128881    -0.1151555405
   13      H       1.9561947011    -3.1694602118    -0.8187117128
   14      H       1.5978460138    -1.4796614400    -1.4201413148
   15      H      -0.0367624621    -3.1376198833     0.5683334627
   16      H      -2.6348839566    -2.2128251173     0.4865880615
   17      H      -3.2020784020     2.2116707504     0.0443021980
   18      H      -1.9290694391     2.5167088011    -1.1567074392
   19      H      -1.5874561842     2.7367593176     0.5762763176
   20      H       0.4859313194     1.9217784183    -0.9770089805
 ----------------------------------------------------------------

    9    -618.7761174537      6.38e-06  Convergence criterion met
 Total energy in the final basis set =     -618.7761174537

                    Orbital Energies (a.u.)
 --------------------------------------------------------------

 Alpha MOs
 -- Occupied --
-24.7447 -24.7406 -14.4135 -14.3421 -10.3643 -10.2333 -10.2304 -10.2139
-10.1959 -10.1876 -10.1844 -10.1729  -1.2888  -1.2287  -1.0610  -0.8541
 -0.8334  -0.7844  -0.7492  -0.7036  -0.6510  -0.6184  -0.5900  -0.5777
 -0.5564  -0.5288  -0.5191  -0.5019  -0.4868  -0.4679  -0.4447  -0.4417
 -0.4381  -0.4330  -0.4204  -0.4078  -0.4023  -0.3914  -0.3577  -0.3063
 -0.2968  -0.2771  -0.2351  -0.2103

          Ground-State Mulliken Net Atomic Charges

     Atom                 Charge (a.u.)
  ----------------------------------------
      1 C                    -0.346475
      2 C                    -0.113524
      3 C                    -0.030184
      4 C                     0.015405
      5 N                    -0.291899
      6 N                    -0.296992
      7 C                    -0.323504
      8 C                     0.353713
      9 C                    -0.333740
     10 C                     0.571820
     11 F                    -0.220247
     12 F                    -0.246007
     13 H                     0.139746
     14 H                     0.136113
     15 H                     0.129688
     16 H                     0.141872
     17 H                     0.201488
     18 H                     0.169496
     19 H                     0.175226
     20 H                     0.168003
  ----------------------------------------
  Sum of atomic charges =     0.000000

                    Cartesian Multipole Moments
 -----------------------------------------------------------------
    Charge (ESU x 10^10)
                 0.0000
    Dipole Moment (Debye)
         X       0.3055      Y       1.6893      Z      -0.5714
       Tot       1.8093
    Quadrupole Moments (Debye-Ang)
        XX     -73.8867     XY      -3.7522     YY     -58.8460
        XZ      -0.5625     YZ      -2.2145     ZZ     -68.1936

 Total job time:  25.35s(wall), 25.25s(cpu)
        *  Thank you very much for using Q-Chem.  Have a nice day.  *
