 Q-Chem 5.2, Q-Chem, Inc., Pleasanton, CA (2019)
 Q-Chem 5.2.1 for Intel X86 EM64T Linux

User input:
--------------------------------------------------------------
$molecule
0 1
C         2.97100297360000    2.60063281200000    0.00742286860000
N         2.76421524260000    1.18199360330000    0.00343885500000
C         3.71008339540000    0.20272392110000    0.00024215550000
N         3.23068934510000   -1.00255721170000   -0.00337129000000
C         1.55466898840000    0.53209907930000    0.00162578660000
C         1.86982771810000   -0.84933693670000   -0.00266148010000
C         0.84464374740000   -1.78995313600000   -0.00539123240000
C        -0.45403966010000   -1.33610582010000   -0.00379959620000
C        -0.76925520260000    0.03707198740000    0.00053217640000
C        -2.13714081380000    0.52850938270000    0.00234861210000
C        -3.27181326440000   -0.15588466930000   -0.00030807660000
F        -3.44408619290000   -1.47224965640000   -0.00538860300000
F        -4.46944799610000    0.43259750130000    0.00193036040000
C         0.24993646990000    0.98702254610000    0.00331695150000
H         4.03971177030000    2.80791286650000    0.00857822760000
H         2.52040007830000    3.04909543350000    0.89616193020000
H         2.52138579900000    3.05397025050000   -0.87935053460000
H         4.75943815610000    0.43002898860000    0.00076265450000
H         1.07160894270000   -2.84341715750000   -0.00868219790000
H        -1.25345221270000   -2.05785365090000   -0.00589397190000
H        -2.26036604330000    1.60245550500000    0.00635378810000
H         0.02149234990000    2.04267851450000    0.00665599200000
$end

$rem
BASIS = 6-31G*
GUI = 2
METHOD = B3LYP
PRINT_ORBITALS false
MOLDEN_FORMAT false
--------------------------------------------------------------

             Standard Nuclear Orientation (Angstroms)
    I     Atom           X                Y                Z
 ----------------------------------------------------------------
    1      C       3.2319784019    -2.0860770587     0.0004774816
    2      N       2.8108647998    -0.7156839078     0.0000430788
    3      C       3.5960045633     0.3966116644     0.0001038703
    4      N       2.9380842508     1.5145003756    -0.0000126163
    5      C       1.5162227492    -0.2582232362    -0.0000799847
    6      C       1.6166114301     1.1551525034    -0.0001360354
    7      C       0.4597476349     1.9280914416    -0.0002657783
    8      C      -0.7543442095     1.2811451525    -0.0003361558
    9      C      -0.8560507804    -0.1240781987    -0.0003504218
   10      C      -2.1327888761    -0.8187470863    -0.0005226276
   11      C      -3.3587077126    -0.3157495865     0.0000841684
   12      F      -3.7300858380     0.9588475585     0.0010632618
   13      F      -4.4523663560    -1.0803121447    -0.0002201092
   14      C       0.2963172814    -0.9071575839    -0.0002460489
   15      H       4.3198097907    -2.1276386682    -0.0001142615
   16      H       2.8555413706    -2.6008756439    -0.8868197571
   17      H       2.8565508039    -2.6000360303     0.8886991879
   18      H       4.6677685006     0.3323051362     0.0002111106
   19      H       0.5230891354     3.0038694525    -0.0002859113
   20      H      -1.6546465237     1.8722800612    -0.0004349020
   21      H      -2.0904787231    -1.8989184689    -0.0011608620
   22      H       0.2318491448    -1.9853279080    -0.0002670218
 ----------------------------------------------------------------

    9    -695.0458905459      6.47e-06  Convergence criterion met
 Total energy in the final basis set =     -695.0458905459

                    Orbital Energies (a.u.)
 --------------------------------------------------------------

 Alpha MOs
 -- Occupied --
-24.7399 -24.7290 -14.3963 -14.3104 -10.3511 -10.2475 -10.2454 -10.2190
-10.2033 -10.2030 -10.1997 -10.1938 -10.1836 -10.1804  -1.2805  -1.2194
 -1.0306  -0.9015  -0.8579  -0.7977  -0.7609  -0.7326  -0.7245  -0.6468
 -0.6299  -0.6032  -0.5867  -0.5680  -0.5381  -0.5223  -0.5142  -0.4882
 -0.4846  -0.4786  -0.4516  -0.4442  -0.4363  -0.4291  -0.4231  -0.4155
 -0.4093  -0.4066  -0.3725  -0.3562  -0.3541  -0.3020  -0.2775  -0.2668
 -0.2288  -0.2056

          Ground-State Mulliken Net Atomic Charges

     Atom                 Charge (a.u.)
  ----------------------------------------
      1 C                    -0.329929
      2 N                    -0.487389
      3 C                     0.206305
      4 N                    -0.501390
      5 C                     0.329996
      6 C                     0.232761
      7 C                    -0.171418
      8 C                    -0.214122
      9 C                     0.184652
     10 C                    -0.293543
     11 C                     0.535044
     12 F                    -0.234335
     13 F                    -0.252668
     14 C                    -0.246075
     15 H                     0.176139
     16 H                     0.178189
     17 H                     0.178193
     18 H                     0.155232
     19 H                     0.141339
     20 H                     0.135677
     21 H                     0.153359
     22 H                     0.123982
  ----------------------------------------
  Sum of atomic charges =     0.000000

                    Cartesian Multipole Moments
 -----------------------------------------------------------------
    Charge (ESU x 10^10)
                -0.0000
    Dipole Moment (Debye)
         X       2.0411      Y      -3.8423      Z       0.0001
       Tot       4.3508
    Quadrupole Moments (Debye-Ang)
        XX     -74.5293     XY     -12.5760     YY     -74.2892
        XZ       0.0035     YZ      -0.0007     ZZ     -79.9961

 Total job time:  33.56s(wall), 32.51s(cpu)
        *  Thank you very much for using Q-Chem.  Have a nice day.  *
