 Q-Chem 5.2, Q-Chem, Inc., Pleasanton, CA (2019)
 Q-Chem 5.2.1 for Intel X86 EM64T Linux

User input:
--------------------------------------------------------------
$molecule
0 1
C         3.52272757520000    1.15962471160000   -0.74198384580000
C         2.38765570410000    1.52800954130000   -0.16373639300000
C         1.19880704350000    0.70770505780000   -0.03166533120000
C        -0.09280868870000    1.20626412220000   -0.07190859870000
N        -0.93838517110000    0.16193180240000   -0.02114499210000
C        -2.39388914100000    0.12860950150000   -0.03454586340000
C        -2.96344842510000    1.53819163580000   -0.16534455290000
C        -2.82588009820000   -0.73349355110000   -1.22446457570000
C        -2.85528190930000   -0.51397410440000    1.27727978940000
N        -0.27879550800000   -0.98681383500000    0.06479377990000
C         1.01797171430000   -0.69981064460000    0.07021182510000
C         1.95872755480000   -1.78899430510000    0.24753796210000
C         3.15718111530000   -1.69611637560000    0.80748871990000
H         4.35417799420000    1.83802243780000   -0.83203069810000
H         3.65904270300000    0.17183600630000   -1.14783301200000
H         2.27432667340000    2.54308930640000    0.20085481190000
H        -0.42131619710000    2.22186350180000   -0.15312609530000
H        -2.63197286390000    2.00872807570000   -1.08837756450000
H        -2.66836343520000    2.15871467970000    0.67788470960000
H        -4.04888206160000    1.48311469080000   -0.18268312890000
H        -2.50938402760000   -0.27530404160000   -2.15914663970000
H        -3.90642747480000   -0.84563066540000   -1.23726024180000
H        -2.36540568580000   -1.71440650620000   -1.14588136660000
H        -2.55710829630000    0.09903006820000    2.12529570680000
H        -2.39761148430000   -1.49402393410000    1.38048673280000
H        -3.93637814590000   -0.62152290790000    1.28567493950000
H         1.56877385790000   -2.75168810880000   -0.05729421470000
H         3.55264573090000   -0.75876684740000    1.15977997990000
H         3.78336767330000   -2.56241886690000    0.93805466440000
$end

$rem
BASIS = 6-31G*
GUI = 2
METHOD = B3LYP
PRINT_ORBITALS false
MOLDEN_FORMAT false
--------------------------------------------------------------

             Standard Nuclear Orientation (Angstroms)
    I     Atom           X                Y                Z
 ----------------------------------------------------------------
    1      C       3.4951436343     1.4703324177    -0.4582873866
    2      C       2.3489775391     1.6406858122     0.1864983570
    3      C       1.2043389316     0.7517365596     0.1292704492
    4      C      -0.1110759775     1.1796021786     0.2004497284
    5      N      -0.9024573393     0.1085327805     0.0140833948
    6      C      -2.3545007519     0.0043761508    -0.0083462701
    7      C      -2.9955915986     1.3761787278     0.1803017744
    8      C      -2.7547724198    -0.5895421257    -1.3621513059
    9      C      -2.7694552596    -0.9391801966     1.1248781985
   10      N      -0.1850430952    -0.9947510924    -0.1595312184
   11      C       1.0956243348    -0.6500934542    -0.0880647131
   12      C       2.0917759051    -1.7014994308    -0.1588791040
   13      C       3.2897317101    -1.6753110326     0.4091685654
   14      H       4.2904295385     2.1934022967    -0.3924695293
   15      H       3.6768163418     0.6072342947    -1.0756029814
   16      H       2.1884628490     2.5407855995     0.7697757805
   17      H      -0.4910958840     2.1692607840     0.3491651613
   18      H      -2.6977260903     2.0583429365    -0.6129186620
   19      H      -2.7234527815     1.8058289753     1.1418113778
   20      H      -4.0769988804     1.2707395231     0.1496237626
   21      H      -2.4713650564     0.0824536576    -2.1695173219
   22      H      -3.8283815759    -0.7512763552    -1.4012219274
   23      H      -2.2447325298    -1.5380790604    -1.5054664294
   24      H      -2.4938042783    -0.5177628458     2.0893659217
   25      H      -2.2620058653    -1.8925502444     1.0057470775
   26      H      -3.8436255376    -1.1012358898     1.1074867453
   27      H       1.7476504378    -2.5898835642    -0.6728024404
   28      H       3.6411243551    -0.8219632277     0.9636469374
   29      H       3.9600317142    -2.5154823378     0.3424815345
 ----------------------------------------------------------------

    9    -538.2540576588      4.40e-06  Convergence criterion met
 Total energy in the final basis set =     -538.2540576588

                    Orbital Energies (a.u.)
 --------------------------------------------------------------

 Alpha MOs
 -- Occupied --
-14.4045 -14.3344 -10.2419 -10.2118 -10.2000 -10.1892 -10.1844 -10.1802
-10.1776 -10.1750 -10.1749 -10.1679 -10.1666  -1.0550  -0.8679  -0.8028
 -0.7963  -0.7526  -0.7315  -0.7010  -0.6955  -0.6272  -0.6223  -0.5742
 -0.5447  -0.5229  -0.5055  -0.4733  -0.4675  -0.4605  -0.4403  -0.4318
 -0.4275  -0.4105  -0.4052  -0.3941  -0.3865  -0.3765  -0.3746  -0.3571
 -0.3470  -0.3464  -0.3423  -0.2929  -0.2914  -0.2725  -0.2274  -0.2027

          Ground-State Mulliken Net Atomic Charges

     Atom                 Charge (a.u.)
  ----------------------------------------
      1 C                    -0.346459
      2 C                    -0.132783
      3 C                    -0.021915
      4 C                     0.040832
      5 N                    -0.227400
      6 C                     0.177443
      7 C                    -0.469281
      8 C                    -0.439503
      9 C                    -0.437582
     10 N                    -0.373562
     11 C                     0.271914
     12 C                    -0.101663
     13 C                    -0.348230
     14 H                     0.134536
     15 H                     0.152746
     16 H                     0.122152
     17 H                     0.156046
     18 H                     0.156127
     19 H                     0.154824
     20 H                     0.160282
     21 H                     0.147701
     22 H                     0.141915
     23 H                     0.182347
     24 H                     0.147180
     25 H                     0.182215
     26 H                     0.141790
     27 H                     0.136124
     28 H                     0.154589
     29 H                     0.137617
  ----------------------------------------
  Sum of atomic charges =     0.000000

                    Cartesian Multipole Moments
 -----------------------------------------------------------------
    Charge (ESU x 10^10)
                 0.0000
    Dipole Moment (Debye)
         X      -1.9873      Y       1.5385      Z       0.2621
       Tot       2.5269
    Quadrupole Moments (Debye-Ang)
        XX     -71.4225     XY      -1.8687     YY     -76.6178
        XZ      -0.0909     YZ       1.9848     ZZ     -80.4122

 Total job time:  45.39s(wall), 45.24s(cpu)
        *  Thank you very much for using Q-Chem.  Have a nice day.  *
