 Q-Chem 5.2, Q-Chem, Inc., Pleasanton, CA (2019)
 Q-Chem 5.2.1 for Intel X86 EM64T Linux

User input:
--------------------------------------------------------------
$molecule
0 1
C         3.62633817330000   -0.02060302570000    0.42800841800000
C         2.53923085950000   -0.45367797810000   -0.19659419150000
C         1.21049832790000    0.14822236870000   -0.08115246130000
C         1.07452595060000    1.52425738020000    0.06981454310000
C        -0.17222692780000    2.11597294440000    0.13875720840000
C        -1.30604550300000    1.33262913160000    0.03816713750000
C        -1.21610360370000   -0.04709832060000   -0.11338315670000
C        -2.42806548760000   -0.85344172510000   -0.26243846170000
C        -3.58582562820000   -0.60191858480000    0.33402501430000
C         0.05445070680000   -0.65221216800000   -0.14997621810000
N         0.16649379260000   -2.02554520000000   -0.26580656960000
H         4.58605893550000   -0.48756057420000    0.28462784410000
H         3.59804912180000    0.80933906740000    1.11399370800000
H         2.61573830750000   -1.30482125780000   -0.86331343820000
H         1.96402610020000    2.13489042910000    0.10808703810000
H        -0.25986368790000    3.18633018020000    0.24961871030000
H        -2.28248954530000    1.79298942420000    0.05162107660000
H        -2.35052277730000   -1.70354555880000   -0.93038277650000
H        -3.70785187350000    0.21953755120000    1.01997197570000
H        -4.45465056790000   -1.21572480770000    0.16651091370000
H        -0.64100749570000   -2.55802384690000    0.01191701670000
H         1.04054447270000   -2.42293908040000    0.03556837650000
$end

$rem
BASIS = 6-31G*
GUI = 2
METHOD = B3LYP
PRINT_ORBITALS false
MOLDEN_FORMAT false
--------------------------------------------------------------

             Standard Nuclear Orientation (Angstroms)
    I     Atom           X                Y                Z
 ----------------------------------------------------------------
    1      C       3.6182600910     0.2640123257    -0.4004506301
    2      C       2.4917980911     0.6662934117     0.1729060972
    3      C       1.2173292918    -0.0499241574     0.1104350282
    4      C       1.1943088606    -1.4406007447     0.0949248423
    5      C       0.0001211164    -2.1355160058     0.0781453506
    6      C      -1.1941724967    -1.4407801288     0.0953290612
    7      C      -1.2173340805    -0.0501225662     0.1108198272
    8      C      -2.4919935230     0.6658137160     0.1735679219
    9      C      -3.6179037281     0.2640374425    -0.4011869367
   10      C      -0.0000765974     0.6568558208     0.0942108900
   11      N      -0.0002291583     2.0394768628     0.0748984297
   12      H       4.5354141957     0.8191386360    -0.2987923289
   13      H       3.6657057274    -0.6285071093    -1.0015645429
   14      H       2.4909601795     1.5818767017     0.7530089873
   15      H       2.1304064061    -1.9777813501     0.1215030834
   16      H       0.0001985983    -3.2151481411     0.0727109308
   17      H      -2.1302249132    -1.9780303499     0.1222297797
   18      H      -2.4917321514     1.5805697211     0.7549975312
   19      H      -3.6645664718    -0.6276742291    -1.0035794208
   20      H      -4.5353411501     0.8186683324    -0.2993587398
   21      H      -0.8441863098     2.4749312744    -0.2580250032
   22      H       0.8429478459     2.4752037910    -0.2596279956
 ----------------------------------------------------------------

    8    -442.3950830627      9.00e-06  Convergence criterion met
 Total energy in the final basis set =     -442.3950830627

                    Orbital Energies (a.u.)
 --------------------------------------------------------------

 Alpha MOs
 -- Occupied --
-14.3413 -10.2240 -10.1882 -10.1882 -10.1824 -10.1824 -10.1777 -10.1777
-10.1775 -10.1775 -10.1693  -0.9265  -0.8409  -0.8021  -0.7688  -0.7173
 -0.7119  -0.6355  -0.6030  -0.5784  -0.5354  -0.5238  -0.5199  -0.4700
 -0.4599  -0.4450  -0.4304  -0.4233  -0.4083  -0.3849  -0.3835  -0.3641
 -0.3358  -0.3321  -0.3087  -0.2982  -0.2733  -0.2177  -0.1936

          Ground-State Mulliken Net Atomic Charges

     Atom                 Charge (a.u.)
  ----------------------------------------
      1 C                    -0.338265
      2 C                    -0.153396
      3 C                     0.142205
      4 C                    -0.198350
      5 C                    -0.134867
      6 C                    -0.198313
      7 C                     0.142116
      8 C                    -0.153514
      9 C                    -0.338186
     10 C                     0.175770
     11 N                    -0.811986
     12 H                     0.139915
     13 H                     0.144414
     14 H                     0.135416
     15 H                     0.125469
     16 H                     0.119072
     17 H                     0.125480
     18 H                     0.135448
     19 H                     0.144440
     20 H                     0.139923
     21 H                     0.328602
     22 H                     0.328607
  ----------------------------------------
  Sum of atomic charges =     0.000000

                    Cartesian Multipole Moments
 -----------------------------------------------------------------
    Charge (ESU x 10^10)
                 0.0000
    Dipole Moment (Debye)
         X      -0.0020      Y       1.2934      Z      -0.8858
       Tot       1.5676
    Quadrupole Moments (Debye-Ang)
        XX     -59.5782     XY      -0.0037     YY     -57.2196
        XZ      -0.0024     YZ      -0.6134     ZZ     -68.9810

 Total job time:  22.26s(wall), 22.17s(cpu)
        *  Thank you very much for using Q-Chem.  Have a nice day.  *
