 Q-Chem 5.2, Q-Chem, Inc., Pleasanton, CA (2019)
 Q-Chem 5.2.1 for Intel X86 EM64T Linux

User input:
--------------------------------------------------------------
$molecule
0 1
C         2.80719964340000    2.38261273380000   -0.22022201270000
C         2.57411968890000    1.13681757600000    0.17457540060000
C         1.29394208400000    0.47068336250000    0.08339942830000
C         0.03959471910000    1.05321762370000    0.03498964170000
N        -0.87162716680000    0.06183907110000    0.05049913560000
C        -2.31892646590000    0.20329933240000   -0.00632603980000
C        -2.69791804250000    0.80724324930000   -1.36280582390000
C        -2.94463855190000   -1.18080116030000    0.14686348930000
C        -2.77690276690000    1.11541647730000    1.13605776900000
N        -0.29406206580000   -1.12974994300000    0.09917625670000
C         1.01841512750000   -0.92543896980000    0.11443283390000
C         1.91679028770000   -2.05964493440000    0.13020193830000
C         3.16383223450000   -2.06536906750000   -0.32412896170000
H         3.77559697470000    2.83947403480000   -0.10911581190000
H         2.04327173320000    2.98812344590000   -0.67873608380000
H         3.37008578570000    0.55115713770000    0.61581557080000
H        -0.23688257740000    2.08743156390000    0.01651282310000
H        -2.34792165600000    0.16587665740000   -2.16845792570000
H        -2.25299267860000    1.79169366910000   -1.48758653180000
H        -3.77762970760000    0.90399927750000   -1.43903915860000
H        -2.59485373200000   -1.84007649380000   -0.64174967840000
H        -4.02732634860000   -1.10416376620000    0.09664196680000
H        -2.66171733460000   -1.61742890030000    1.10032586570000
H        -2.38228775700000    2.12161280960000    1.01962539290000
H        -2.43918075210000    0.71984182290000    2.09129538340000
H        -3.86202491140000    1.17356170040000    1.14877766230000
H         1.47103065720000   -2.96686828940000    0.51691322810000
H         3.61937521770000   -1.19693393250000   -0.76825492080000
H         3.76940935510000   -2.95507815950000   -0.28517503240000
$end

$rem
BASIS = 6-31G*
GUI = 2
METHOD = B3LYP
PRINT_ORBITALS false
MOLDEN_FORMAT false
--------------------------------------------------------------

             Standard Nuclear Orientation (Angstroms)
    I     Atom           X                Y                Z
 ----------------------------------------------------------------
    1      C      -2.6516320644    -2.5914778268    -0.1297863520
    2      C      -2.5155167435    -1.3237135994     0.2395959987
    3      C      -1.2953976118    -0.5574348492     0.1170042795
    4      C       0.0015157742    -1.0367722827     0.0593130439
    5      N       0.8288919843     0.0255806207     0.0434316083
    6      C       2.2819688282     0.0013215195    -0.0333443562
    7      C       2.6899346551    -0.5949345780    -1.3848112721
    8      C       2.7946874449     1.4343577428     0.0860022950
    9      C       2.8288562784    -0.8490756509     1.1175159804
   10      N       0.1567182890     1.1669214602     0.0802948438
   11      C      -1.1343555634     0.8568123856     0.1194456984
   12      C      -2.1220139475     1.9142536224     0.1293809974
   13      C      -3.3716104592     1.8100271751    -0.3055998703
   14      H      -3.5778469241    -3.1234735926     0.0042538150
   15      H      -1.8473294686    -3.1412528499    -0.5894699239
   16      H      -3.3503692307    -0.7966481419     0.6828525747
   17      H       0.3612125317    -2.0452242070     0.0545673699
   18      H       2.2774821286     0.0007132408    -2.1959897199
   19      H       2.3251542753    -1.6144760233    -1.4855185180
   20      H       3.7727653791    -0.6049171574    -1.4760718952
   21      H       2.3812227633     2.0481862892    -0.7084570096
   22      H       3.8792065309     1.4451500998     0.0203499250
   23      H       2.4904678615     1.8641944238     1.0359862814
   24      H       2.5161057027    -1.8860379552     1.0247538102
   25      H       2.4734005146    -0.4645748247     2.0708389483
   26      H       3.9151745763    -0.8184855866     1.1144281522
   27      H      -1.7464237069     2.8617826437     0.4932796241
   28      H      -3.7609222631     0.8992858607    -0.7274214421
   29      H      -4.0471921294     2.6480812649    -0.2727658121
 ----------------------------------------------------------------

    9    -538.2560044069      4.16e-06  Convergence criterion met
 Total energy in the final basis set =     -538.2560044069

                    Orbital Energies (a.u.)
 --------------------------------------------------------------

 Alpha MOs
 -- Occupied --
-14.4062 -14.3348 -10.2428 -10.2102 -10.1986 -10.1852 -10.1846 -10.1838
-10.1830 -10.1787 -10.1738 -10.1717 -10.1708  -1.0560  -0.8697  -0.8049
 -0.7968  -0.7555  -0.7301  -0.7038  -0.6948  -0.6320  -0.6261  -0.5569
 -0.5507  -0.5401  -0.5028  -0.4750  -0.4707  -0.4560  -0.4470  -0.4331
 -0.4238  -0.4146  -0.4011  -0.3956  -0.3921  -0.3844  -0.3755  -0.3587
 -0.3485  -0.3433  -0.3409  -0.2992  -0.2923  -0.2736  -0.2245  -0.2070

          Ground-State Mulliken Net Atomic Charges

     Atom                 Charge (a.u.)
  ----------------------------------------
      1 C                    -0.357826
      2 C                    -0.115919
      3 C                    -0.017886
      4 C                     0.030614
      5 N                    -0.221849
      6 C                     0.168091
      7 C                    -0.435429
      8 C                    -0.436838
      9 C                    -0.442373
     10 N                    -0.378882
     11 C                     0.268554
     12 C                    -0.088223
     13 C                    -0.359400
     14 H                     0.138153
     15 H                     0.130557
     16 H                     0.137781
     17 H                     0.156948
     18 H                     0.164406
     19 H                     0.145559
     20 H                     0.150283
     21 H                     0.172076
     22 H                     0.139067
     23 H                     0.163191
     24 H                     0.146383
     25 H                     0.163532
     26 H                     0.152286
     27 H                     0.138443
     28 H                     0.148558
     29 H                     0.140145
  ----------------------------------------
  Sum of atomic charges =     0.000000

                    Cartesian Multipole Moments
 -----------------------------------------------------------------
    Charge (ESU x 10^10)
                 0.0000
    Dipole Moment (Debye)
         X       1.9062      Y      -1.3753      Z       0.0122
       Tot       2.3506
    Quadrupole Moments (Debye-Ang)
        XX     -71.0952     XY      -2.1272     YY     -77.4973
        XZ      -0.4506     YZ       1.0462     ZZ     -80.9405

 Total job time:  45.13s(wall), 44.99s(cpu)
        *  Thank you very much for using Q-Chem.  Have a nice day.  *
