 Q-Chem 5.2, Q-Chem, Inc., Pleasanton, CA (2019)
 Q-Chem 5.2.1 for Intel X86 EM64T Linux

User input:
--------------------------------------------------------------
$molecule
0 1
C        -3.07461535910000    2.27433257340000    0.00316302950000
C        -3.22087133780000    0.95268423830000   -0.00276532560000
C        -2.16266376060000   -0.03893819080000   -0.00165681350000
C        -2.48708689920000   -1.38039983040000   -0.00158709580000
C        -1.52882363910000   -2.39870831610000    0.00016175160000
C        -0.17014271400000   -2.15631248220000    0.00088043560000
C         0.75541738250000   -3.27276103730000    0.00219410130000
C         2.08350967650000   -3.20699787490000   -0.00266498780000
C         0.22335578880000   -0.78598901010000    0.00030547120000
N         1.47548515570000   -0.34770258160000    0.00095633150000
Se        1.48771053850000    1.39998704190000    0.00035761500000
N        -0.25749782090000    1.49386895320000   -0.00070688920000
C        -0.77098082760000    0.27065316280000   -0.00056350020000
H        -3.93166452370000    2.92669384490000    0.00197639840000
H        -2.10386296150000    2.73538954380000    0.00936816950000
H        -4.21846242690000    0.52806709360000   -0.00845744880000
H        -3.53100813450000   -1.66115037240000   -0.00254303660000
H        -1.87242268380000   -3.42366387020000    0.00068978800000
H         0.27102378000000   -4.24274094900000    0.00714516990000
H         2.60264314240000   -2.26601571200000   -0.00808987510000
H         2.68264742330000   -4.10206358940000   -0.00138699340000
$end

$rem
BASIS = 6-31G*
GUI = 2
METHOD = B3LYP
PRINT_ORBITALS false
MOLDEN_FORMAT false
--------------------------------------------------------------

             Standard Nuclear Orientation (Angstroms)
    I     Atom           X                Y                Z
 ----------------------------------------------------------------
    1      C       3.7633515860     0.5252688391     0.0031276354
    2      C       2.9010912137     1.5375212688    -0.0025598263
    3      C       1.4537403977     1.4464507837    -0.0014068125
    4      C       0.6991511722     2.6020305936    -0.0010720631
    5      C      -0.6991407972     2.6020327210     0.0007374638
    6      C      -1.4537350287     1.4464560730     0.0012566079
    7      C      -2.9010857229     1.5375308583     0.0026513888
    8      C      -3.7633502858     0.5252798434    -0.0023737576
    9      C      -0.7254652978     0.2207928680     0.0004036663
   10      N      -1.2643811568    -0.9914335465     0.0008342400
   11      Se     -0.0000036620    -2.1980476464    -0.0000618891
   12      N       1.2643765101    -0.9914370315    -0.0009387172
   13      C       0.7254647057     0.2207904996    -0.0005282689
   14      H       4.8257792214     0.7023450755     0.0019304947
   15      H       3.4338493877    -0.4976507015     0.0091414545
   16      H       3.2755236062     2.5550133779    -0.0080636693
   17      H       1.2101052487     3.5546683207    -0.0018586845
   18      H      -1.2100928500     3.5546721700     0.0014791657
   19      H      -3.2755134742     2.5550276963     0.0078232357
   20      H      -3.4338477923    -0.4976437406    -0.0080185645
   21      H      -4.8257779713     0.7023557325    -0.0010140645
 ----------------------------------------------------------------

   10   -2896.6085175575      4.95e-06  Convergence criterion met
 Total energy in the final basis set =    -2896.6085175575

                    Orbital Energies (a.u.)
 --------------------------------------------------------------

 Alpha MOs
 -- Occupied --
******** -58.1610 -52.2187 -52.2167 -52.2159 -14.3587 -14.3587 -10.2384
-10.2380 -10.2080 -10.2080 -10.2011 -10.2006 -10.1892 -10.1892 -10.1738
-10.1738  -7.8962  -5.8417  -5.8351  -5.8309  -2.1746  -2.1735  -2.1688
 -2.1640  -2.1637  -0.9956  -0.8820  -0.8653  -0.8026  -0.7672  -0.7556
 -0.7195  -0.6522  -0.6198  -0.6090  -0.5678  -0.5545  -0.4998  -0.4929
 -0.4723  -0.4614  -0.4415  -0.4382  -0.4244  -0.3882  -0.3825  -0.3762
 -0.3735  -0.3617  -0.3614  -0.3480  -0.2972  -0.2884  -0.2781  -0.2681
 -0.2601  -0.2063

          Ground-State Mulliken Net Atomic Charges

     Atom                 Charge (a.u.)
  ----------------------------------------
      1 C                    -0.354910
      2 C                    -0.117620
      3 C                     0.206120
      4 C                    -0.227311
      5 C                    -0.227311
      6 C                     0.206120
      7 C                    -0.117618
      8 C                    -0.354912
      9 C                     0.211195
     10 N                    -0.526451
     11 Se                    0.447266
     12 N                    -0.526449
     13 C                     0.211193
     14 H                     0.137400
     15 H                     0.186633
     16 H                     0.123725
     17 H                     0.137587
     18 H                     0.137586
     19 H                     0.123724
     20 H                     0.186633
     21 H                     0.137400
  ----------------------------------------
  Sum of atomic charges =     0.000000

                    Cartesian Multipole Moments
 -----------------------------------------------------------------
    Charge (ESU x 10^10)
                 0.0000
    Dipole Moment (Debye)
         X       0.0000      Y       0.5838      Z       0.0001
       Tot       0.5838
    Quadrupole Moments (Debye-Ang)
        XX     -84.8638     XY       0.0000     YY     -73.8009
        XZ       0.0033     YZ      -0.0012     ZZ     -89.9515

 Total job time:  50.84s(wall), 50.37s(cpu)
        *  Thank you very much for using Q-Chem.  Have a nice day.  *
