 Q-Chem 5.2, Q-Chem, Inc., Pleasanton, CA (2019)
 Q-Chem 5.2.1 for Intel X86 EM64T Linux

User input:
--------------------------------------------------------------
$molecule
0 1
C         5.13665332110000    1.10970277610000   -0.00640408200000
C         4.60989626830000   -0.11228628950000    0.00136978510000
C         3.20493880420000   -0.40546227700000    0.00218501220000
C         2.61732250400000   -1.64716405840000    0.00882747180000
C         1.21900652440000   -1.60832961280000    0.00813440410000
C         0.71239609490000   -0.33032988690000    0.00096472370000
C        -0.65117650140000    0.07777895770000   -0.00123306790000
C        -1.15844956760000    1.35650025920000   -0.00915383690000
C        -2.55581092500000    1.40095268250000   -0.00860057490000
C        -3.14611253650000    0.16002536860000   -0.00037158340000
C        -4.53593560020000   -0.20566771390000    0.00277183090000
C        -5.55620025080000    0.64982974830000   -0.00177704260000
S        -1.93709101880000   -1.09253138910000    0.00685880780000
S         1.99518925420000    0.84622978290000   -0.00525318330000
H         6.20034157440000    1.26758102640000   -0.00650764330000
H         4.51318892540000    1.98864363440000   -0.01287070900000
H         5.25086425990000   -0.98512600940000    0.00773742700000
H         3.18710835820000   -2.55977454050000    0.01409829860000
H         0.58871852000000   -2.48028404890000    0.01277805830000
H        -0.52581840480000    2.22682325930000   -0.01508317770000
H        -3.11614268300000    2.31810272940000   -0.01414061200000
H        -4.72785200450000   -1.27089904800000    0.00949570190000
H        -5.41085453360000    1.71600593980000   -0.00837100910000
H        -6.57452460680000    0.30390870080000    0.00096105050000
$end

$rem
BASIS = 6-31G*
GUI = 2
METHOD = B3LYP
PRINT_ORBITALS false
MOLDEN_FORMAT false
--------------------------------------------------------------

             Standard Nuclear Orientation (Angstroms)
    I     Atom           X                Y                Z
 ----------------------------------------------------------------
    1      C       5.1204155592    -1.1837552031    -0.0008083654
    2      C       4.6139930559     0.0468246008    -0.0013529540
    3      C       3.2140900279     0.3632556390    -0.0002527265
    4      C       2.6471435621     1.6145475922     0.0004581054
    5      C       1.2483759246     1.5989005789     0.0011217917
    6      C       0.7206442469     0.3294565868     0.0008805940
    7      C      -0.6495078595    -0.0559926188     0.0008820142
    8      C      -1.1779140141    -1.3261514865     0.0013877614
    9      C      -2.5758203709    -1.3474241383     0.0007721117
   10      C      -3.1454646913    -0.0968527164    -0.0001077151
   11      C      -4.5290330573     0.2918468950    -0.0009132016
   12      C      -5.5633427102    -0.5466279106    -0.0012287430
   13      S      -1.9158403826     1.1355059144    -0.0001756525
   14      S       1.9837521342    -0.8682275732     0.0000281773
   15      H       6.1813397102    -1.3592466698    -0.0017797757
   16      H       4.4824629648    -2.0522603586     0.0006003699
   17      H       5.2693456777     0.9089387543    -0.0027009056
   18      H       3.2319833428     2.5176002065     0.0004498811
   19      H       0.6326327256     2.4811981932     0.0016726236
   20      H      -0.5598008700    -2.2068642984     0.0021318141
   21      H      -3.1512826163    -2.2551739505     0.0010216246
   22      H      -4.7032601871     1.3601350620    -0.0013730175
   23      H      -5.4356955377    -1.6150878392    -0.0008977670
   24      H      -6.5757912767    -0.1838594731    -0.0017972812
 ----------------------------------------------------------------

    9   -1259.6178909041      4.51e-06  Convergence criterion met
 Total energy in the final basis set =    -1259.6178909041

                    Orbital Energies (a.u.)
 --------------------------------------------------------------

 Alpha MOs
 -- Occupied --
-88.9090 -88.9058 -10.2276 -10.2271 -10.2215 -10.2195 -10.2011 -10.1990
-10.1943 -10.1934 -10.1925 -10.1923 -10.1845 -10.1824  -7.9707  -7.9677
 -5.9347  -5.9318  -5.9312  -5.9282  -5.9276  -5.9244  -0.9027  -0.8818
 -0.8076  -0.7886  -0.7499  -0.7473  -0.7276  -0.6931  -0.6259  -0.6136
 -0.5778  -0.5431  -0.5373  -0.5296  -0.5087  -0.4829  -0.4569  -0.4463
 -0.4271  -0.4198  -0.4097  -0.3988  -0.3872  -0.3821  -0.3819  -0.3648
 -0.3632  -0.3478  -0.3356  -0.3235  -0.2904  -0.2612  -0.2539  -0.2375
 -0.1859

          Ground-State Mulliken Net Atomic Charges

     Atom                 Charge (a.u.)
  ----------------------------------------
      1 C                    -0.375719
      2 C                    -0.057919
      3 C                    -0.130706
      4 C                    -0.142995
      5 C                    -0.146501
      6 C                    -0.146788
      7 C                    -0.146572
      8 C                    -0.144033
      9 C                    -0.127253
     10 C                    -0.121199
     11 C                    -0.091707
     12 C                    -0.341177
     13 S                     0.252999
     14 S                     0.258839
     15 H                     0.147369
     16 H                     0.155150
     17 H                     0.139157
     18 H                     0.140828
     19 H                     0.152583
     20 H                     0.154898
     21 H                     0.141193
     22 H                     0.138191
     23 H                     0.143215
     24 H                     0.148146
  ----------------------------------------
  Sum of atomic charges =     0.000000

                    Cartesian Multipole Moments
 -----------------------------------------------------------------
    Charge (ESU x 10^10)
                 0.0000
    Dipole Moment (Debye)
         X      -0.0952      Y       0.1462      Z      -0.0001
       Tot       0.1745
    Quadrupole Moments (Debye-Ang)
        XX     -82.4678     XY       3.2045     YY     -86.6919
        XZ      -0.0030     YZ      -0.0044     ZZ    -101.9046

 Total job time:  36.06s(wall), 35.71s(cpu)
        *  Thank you very much for using Q-Chem.  Have a nice day.  *
