 Q-Chem 5.2, Q-Chem, Inc., Pleasanton, CA (2019)
 Q-Chem 5.2.1 for Intel X86 EM64T Linux

User input:
--------------------------------------------------------------
$molecule
0 1
C        -4.39257512890000   -0.09369893600000   -0.94747404280000
C        -3.70882410050000   -0.57814875050000    0.07757278300000
C        -2.24584217370000   -0.56893966100000    0.18827925940000
C        -1.62223784880000   -1.75446449410000    0.57812692710000
C        -0.24934049390000   -1.87393806590000    0.61220266480000
C         0.52855799100000   -0.78413599730000    0.24810167090000
O         1.92072454750000   -1.00457201990000    0.29484461760000
C         2.76045830320000   -0.04576118900000   -0.02073301480000
F         2.68103820490000    1.04741208680000    0.76170708620000
F         4.00316165000000   -0.50460224350000    0.09684800570000
F         2.63919417340000    0.41087635670000   -1.28198339320000
C        -0.05737336100000    0.40972125420000   -0.11794808410000
C        -1.44800157870000    0.53734517350000   -0.13163183640000
C        -1.98346482790000    1.87130084920000   -0.42596675810000
C        -2.93793263900000    2.47053486030000    0.26871337580000
H        -5.46455088150000   -0.17476443370000   -1.00059618880000
H        -3.90610262330000    0.40065849060000   -1.77113262070000
H        -4.22491291530000   -1.10363945210000    0.87182491790000
H        -2.23339025210000   -2.60532542110000    0.84046172460000
H         0.23354942280000   -2.79090325770000    0.90584884160000
H         0.53491802220000    1.27307409890000   -0.37895526250000
H        -1.47800626200000    2.40365497620000   -1.22220679640000
H        -3.43242607420000    1.98287438520000    1.09161767620000
H        -3.25774874290000    3.47256010420000    0.04064168130000
$end

$rem
BASIS = 6-31G*
GUI = 2
METHOD = B3LYP
PRINT_ORBITALS false
MOLDEN_FORMAT false
--------------------------------------------------------------

             Standard Nuclear Orientation (Angstroms)
    I     Atom           X                Y                Z
 ----------------------------------------------------------------
    1      C      -4.2516282500     0.2430283653     0.8955454831
    2      C      -3.5106571646     0.8467132091    -0.0206720385
    3      C      -2.0494542529     0.7513355317    -0.1125741538
    4      C      -1.3362080933     1.9383017906    -0.2820548426
    5      C       0.0420768496     1.9625870226    -0.2772505667
    6      C       0.7338018904     0.7730741316    -0.0985337929
    7      O       2.1385653538     0.8973364750    -0.0883777031
    8      C       2.9021861680    -0.1595751846     0.0661578199
    9      F       2.7674526289    -1.0925260770    -0.8956100213
   10      F       4.1760608484     0.2218896270     0.0461599736
   11      F       2.7181737801    -0.8172916805     1.2269867506
   12      C       0.0581522140    -0.4206815550     0.0465454439
   13      C      -1.3378644194    -0.4481720622     0.0200165715
   14      C      -1.9710147691    -1.7707981949     0.0707356977
   15      C      -2.9466847618    -2.1706259982    -0.7298119174
   16      H      -5.3164867933     0.3907553372     0.9482580620
   17      H      -3.8211401192    -0.4199511991     1.6267063978
   18      H      -3.9692796149     1.5373303299    -0.7178363208
   19      H      -1.8806213731     2.8634966649    -0.4000368268
   20      H       0.5941022609     2.8792645210    -0.4005640729
   21      H       0.5829293856    -1.3565585998     0.1608041032
   22      H      -1.5235159424    -2.4677345780     0.7685264651
   23      H      -3.3856517725    -1.5137771340    -1.4614986790
   24      H      -3.3402766429    -3.1712863036    -0.6837900552
 ----------------------------------------------------------------

    9    -799.2860947695      2.62e-06  Convergence criterion met
 Total energy in the final basis set =     -799.2860947695

                    Orbital Energies (a.u.)
 --------------------------------------------------------------

 Alpha MOs
 -- Occupied --
-24.7293 -24.7273 -24.7271 -19.2238 -10.4816 -10.2710 -10.2103 -10.2044
-10.2020 -10.2020 -10.2013 -10.1946 -10.1933 -10.1841 -10.1822  -1.3259
 -1.2256  -1.2205  -1.1211  -0.8845  -0.8153  -0.7949  -0.7535  -0.7453
 -0.6964  -0.6497  -0.6440  -0.6090  -0.6016  -0.5907  -0.5802  -0.5443
 -0.5127  -0.4927  -0.4740  -0.4715  -0.4692  -0.4590  -0.4486  -0.4438
 -0.4399  -0.4321  -0.4179  -0.4061  -0.4014  -0.4009  -0.3960  -0.3825
 -0.3606  -0.3555  -0.3505  -0.2994  -0.2839  -0.2533  -0.2211

          Ground-State Mulliken Net Atomic Charges

     Atom                 Charge (a.u.)
  ----------------------------------------
      1 C                    -0.309032
      2 C                    -0.155715
      3 C                     0.107867
      4 C                    -0.188875
      5 C                    -0.164690
      6 C                     0.342107
      7 O                    -0.519744
      8 C                     0.973240
      9 F                    -0.276131
     10 F                    -0.253115
     11 F                    -0.277161
     12 C                    -0.224564
     13 C                     0.087829
     14 C                    -0.153942
     15 C                    -0.306505
     16 H                     0.143132
     17 H                     0.149715
     18 H                     0.135111
     19 H                     0.139202
     20 H                     0.152167
     21 H                     0.163088
     22 H                     0.139535
     23 H                     0.151239
     24 H                     0.145244
  ----------------------------------------
  Sum of atomic charges =     0.000000

                    Cartesian Multipole Moments
 -----------------------------------------------------------------
    Charge (ESU x 10^10)
                 0.0000
    Dipole Moment (Debye)
         X      -2.5850      Y       0.3883      Z      -0.1334
       Tot       2.6174
    Quadrupole Moments (Debye-Ang)
        XX     -84.0578     XY       0.6232     YY     -77.7364
        XZ       0.8690     YZ      -2.4798     ZZ     -85.0567

 Total job time:  39.11s(wall), 38.98s(cpu)
        *  Thank you very much for using Q-Chem.  Have a nice day.  *
