 Q-Chem 5.2, Q-Chem, Inc., Pleasanton, CA (2019)
 Q-Chem 5.2.1 for Intel X86 EM64T Linux

User input:
--------------------------------------------------------------
$molecule
0 1
C        -4.75018025430000   -1.12374764870000    0.04450953330000
C        -3.50267247790000   -1.40031406680000   -0.31698808430000
C        -2.34466584770000   -0.52714101350000   -0.17479720400000
C        -2.43679394900000    0.79406968770000    0.27416247480000
C        -1.31249876340000    1.58275174490000    0.37220216910000
C        -0.05484026470000    1.07086297660000    0.04534967320000
C         1.05717662730000    1.94206261140000    0.07206234070000
N         1.93169231650000    2.68330415930000    0.05938125520000
C         0.06643855640000   -0.26132484920000   -0.38123920150000
C         1.36021526360000   -0.85974616380000   -0.71369594490000
C         2.46299263600000   -0.73808274080000    0.00665299780000
F         2.59007710870000   -0.10221854750000    1.15986472140000
F         3.61634285870000   -1.31213657670000   -0.31341426000000
C        -1.08494694480000   -1.02682170900000   -0.50462332310000
H        -5.54248601080000   -1.83797109780000   -0.09827615730000
H        -5.03587238790000   -0.18997325520000    0.49728741560000
H        -3.28569153360000   -2.36593884760000   -0.75673979600000
H        -3.39663172590000    1.21187666480000    0.53178235950000
H        -1.39018522480000    2.61009197000000    0.69640477230000
H         1.41415735940000   -1.48689696810000   -1.59079966550000
H        -0.99470363680000   -2.04730631280000   -0.84930333350000
$end

$rem
BASIS = 6-31G*
GUI = 2
METHOD = B3LYP
PRINT_ORBITALS false
MOLDEN_FORMAT false
--------------------------------------------------------------

             Standard Nuclear Orientation (Angstroms)
    I     Atom           X                Y                Z
 ----------------------------------------------------------------
    1      C       4.7135049913     0.5871100427     0.2847472406
    2      C       3.5105028630     1.0540347358    -0.0286412938
    3      C       2.2656857185     0.2967762995    -0.0535153911
    4      C       2.2102352934    -1.0856333344     0.1502466061
    5      C       1.0087327971    -1.7559093307     0.0974008527
    6      C      -0.1810488477    -1.0639134856    -0.1395146440
    7      C      -1.3770306856    -1.8034530742    -0.2773282088
    8      N      -2.3224986145    -2.4339081298    -0.4289670935
    9      C      -0.1540193637     0.3283132347    -0.3194735002
   10      C      -1.3706826104     1.1097720965    -0.5465116364
   11      C      -2.4978699373     0.9784441648     0.1332120026
   12      F      -2.7185593764     0.1636858190     1.1519543765
   13      F      -3.5777103386     1.7190203885    -0.0851664684
   14      C       1.0726752844     0.9775794167    -0.2955711703
   15      H       5.5783530672     1.2276135790     0.2780894529
   16      H       4.8902539298    -0.4374341968     0.5633712490
   17      H       3.4050255889     2.1001492689    -0.2882803581
   18      H       3.1152758010    -1.6417658133     0.3341965411
   19      H       0.9722573801    -2.8270240601     0.2313905272
   20      H      -1.3378352127     1.8857624752    -1.2963774901
   21      H       1.0964741638     2.0469751936    -0.4510165838
 ----------------------------------------------------------------

    9    -677.7532173099      7.59e-06  Convergence criterion met
 Total energy in the final basis set =     -677.7532173099

                    Orbital Energies (a.u.)
 --------------------------------------------------------------

 Alpha MOs
 -- Occupied --
-24.7472 -24.7433 -14.3284 -10.3691 -10.2360 -10.2334 -10.2221 -10.2208
-10.2179 -10.2127 -10.2112 -10.2098 -10.2090 -10.2001  -1.2928  -1.2322
 -0.9145  -0.8909  -0.8340  -0.8095  -0.7665  -0.7554  -0.6757  -0.6490
 -0.6303  -0.5898  -0.5777  -0.5730  -0.5300  -0.5240  -0.5009  -0.4927
 -0.4644  -0.4480  -0.4471  -0.4436  -0.4402  -0.4215  -0.4119  -0.4071
 -0.3799  -0.3665  -0.3615  -0.3548  -0.3306  -0.3150  -0.2974  -0.2534
 -0.2404

          Ground-State Mulliken Net Atomic Charges

     Atom                 Charge (a.u.)
  ----------------------------------------
      1 C                    -0.345909
      2 C                    -0.114073
      3 C                     0.196955
      4 C                    -0.188614
      5 C                    -0.141473
      6 C                     0.110431
      7 C                     0.207102
      8 N                    -0.478936
      9 C                     0.177465
     10 C                    -0.339966
     11 C                     0.589636
     12 F                    -0.222802
     13 F                    -0.237874
     14 C                    -0.273060
     15 H                     0.155099
     16 H                     0.150784
     17 H                     0.135806
     18 H                     0.140312
     19 H                     0.161291
     20 H                     0.176943
     21 H                     0.140882
  ----------------------------------------
  Sum of atomic charges =     0.000000

                    Cartesian Multipole Moments
 -----------------------------------------------------------------
    Charge (ESU x 10^10)
                 0.0000
    Dipole Moment (Debye)
         X       4.5841      Y       2.5858      Z       0.0539
       Tot       5.2634
    Quadrupole Moments (Debye-Ang)
        XX     -78.7523     XY      -8.1859     YY     -77.4349
        XZ       0.3875     YZ      -3.7865     ZZ     -79.4630

 Total job time:  31.33s(wall), 31.04s(cpu)
        *  Thank you very much for using Q-Chem.  Have a nice day.  *
