 Q-Chem 5.2, Q-Chem, Inc., Pleasanton, CA (2019)
 Q-Chem 5.2.1 for Intel X86 EM64T Linux

User input:
--------------------------------------------------------------
$molecule
0 1
C        -4.15094360980000   -0.08940710950000   -0.11360998880000
C        -3.04772693980000    0.64688787900000   -0.03468398440000
C        -1.67496733120000    0.16747166630000   -0.00843271660000
C        -1.33136189770000   -1.18549892840000   -0.03231812250000
C        -0.01470960000000   -1.58570309390000   -0.00399751310000
C         1.02905960290000   -0.65619831300000    0.04583091510000
N         2.34008414060000   -1.05282614950000   -0.02860958720000
C         2.76367122540000   -2.41515367190000    0.16940353930000
C         0.70155092310000    0.71767314070000    0.09011642170000
C         1.73844127490000    1.74285044950000    0.20574555450000
C         1.68721423720000    2.94265682210000   -0.35710159860000
C        -0.63403971580000    1.09145335530000    0.05697050280000
H        -5.12714084120000    0.36448211170000   -0.12800408110000
H        -4.13238171410000   -1.16433154160000   -0.16813022860000
H        -3.14510375940000    1.72547490920000    0.01402806650000
H        -2.10351944740000   -1.93824222940000   -0.06919633030000
H         0.21110181090000   -2.64013935120000   -0.02434122370000
H         3.02060933730000   -0.34716528330000    0.20057498220000
H         2.35692017970000   -3.05275815850000   -0.61790167130000
H         2.44931213390000   -2.81714989120000    1.14076320010000
H         3.84928328940000   -2.45581826670000    0.11084665460000
H         2.59701136890000    1.49422153190000    0.82188803080000
H         0.87118452750000    3.23691543660000   -0.99500584240000
H         2.46675297890000    3.67124982860000   -0.21225099400000
H        -0.87216324330000    2.14440022290000    0.11072848480000
$end

$rem
BASIS = 6-31G*
GUI = 2
METHOD = B3LYP
PRINT_ORBITALS false
MOLDEN_FORMAT false
--------------------------------------------------------------

             Standard Nuclear Orientation (Angstroms)
    I     Atom           X                Y                Z
 ----------------------------------------------------------------
    1      C       4.1242499205    -0.5975850913     0.0335515772
    2      C       3.1199062195     0.2679806260    -0.0532606601
    3      C       1.6978275070    -0.0357263972    -0.0319966897
    4      C       1.1887773336    -1.3328605652     0.0544643288
    5      C      -0.1678176288    -1.5651742797     0.0692680463
    6      C      -1.0883521725    -0.5144329255     0.0023732093
    7      N      -2.4363269177    -0.7399757800     0.1195690906
    8      C      -3.0314725007    -2.0448246525    -0.0136324483
    9      C      -0.5931739940     0.8046634923    -0.1050005528
   10      C      -1.4966059430     1.9468648054    -0.2417012713
   11      C      -1.2818696552     3.1513708702     0.2701677798
   12      C       0.7790293296     1.0085864714    -0.1142802529
   13      H       5.1495088011    -0.2697892703     0.0095145815
   14      H       3.9730694355    -1.6587696576     0.1326036473
   15      H       3.3498638002     1.3231112189    -0.1482555739
   16      H       1.8616428603    -2.1747268220     0.1066462203
   17      H      -0.5228662406    -2.5813048804     0.1375290613
   18      H      -3.0290319922     0.0363378897    -0.1246339996
   19      H      -2.6877430030    -2.6978975140     0.7908433184
   20      H      -2.7943393229    -2.5200272965    -0.9737951910
   21      H      -4.1118475206    -1.9464330659     0.0684954006
   22      H      -2.3947574917     1.7847331798    -0.8296023067
   23      H      -0.4196690540     3.3649168174     0.8787913870
   24      H      -1.9677935268     3.9660916428     0.1112696313
   25      H       1.1452611831     2.0204140940    -0.2161082086
 ----------------------------------------------------------------

    8    -481.7041878602      9.72e-06  Convergence criterion met
 Total energy in the final basis set =     -481.7041878602

                    Orbital Energies (a.u.)
 --------------------------------------------------------------

 Alpha MOs
 -- Occupied --
-14.3485 -10.2234 -10.2199 -10.1904 -10.1827 -10.1786 -10.1770 -10.1769
-10.1768 -10.1749 -10.1746 -10.1637  -0.9422  -0.8490  -0.7956  -0.7695
 -0.7258  -0.7240  -0.6788  -0.6310  -0.5977  -0.5733  -0.5415  -0.5303
 -0.4922  -0.4724  -0.4540  -0.4483  -0.4396  -0.4337  -0.4170  -0.4050
 -0.3938  -0.3781  -0.3730  -0.3636  -0.3356  -0.3271  -0.3165  -0.2867
 -0.2535  -0.2283  -0.1803

          Ground-State Mulliken Net Atomic Charges

     Atom                 Charge (a.u.)
  ----------------------------------------
      1 C                    -0.365162
      2 C                    -0.111740
      3 C                     0.186148
      4 C                    -0.193774
      5 C                    -0.186721
      6 C                     0.295290
      7 N                    -0.645894
      8 C                    -0.302538
      9 C                     0.128998
     10 C                    -0.145577
     11 C                    -0.336774
     12 C                    -0.282990
     13 H                     0.135833
     14 H                     0.134066
     15 H                     0.119435
     16 H                     0.123344
     17 H                     0.122458
     18 H                     0.318924
     19 H                     0.167304
     20 H                     0.152411
     21 H                     0.157109
     22 H                     0.119849
     23 H                     0.146316
     24 H                     0.138544
     25 H                     0.125139
  ----------------------------------------
  Sum of atomic charges =     0.000000

                    Cartesian Multipole Moments
 -----------------------------------------------------------------
    Charge (ESU x 10^10)
                 0.0000
    Dipole Moment (Debye)
         X      -2.5069      Y      -0.5251      Z      -0.4419
       Tot       2.5991
    Quadrupole Moments (Debye-Ang)
        XX     -62.8111     XY       2.0850     YY     -64.7232
        XZ       2.3058     YZ      -0.1680     ZZ     -76.3578

 Total job time:  26.97s(wall), 26.83s(cpu)
        *  Thank you very much for using Q-Chem.  Have a nice day.  *
