 Q-Chem 5.2, Q-Chem, Inc., Pleasanton, CA (2019)
 Q-Chem 5.2.1 for Intel X86 EM64T Linux

User input:
--------------------------------------------------------------
$molecule
0 1
C        -5.93047227790000   -1.36643076530000    0.02178374950000
C        -5.48889831130000   -0.11125842820000    0.01380519700000
C        -4.10664581630000    0.27639226100000    0.00431550290000
C        -3.60576611120000    1.55614183460000    0.00118729450000
C        -2.20857030510000    1.61276335820000   -0.00607055970000
C        -1.61648169640000    0.37154126830000   -0.00925436770000
C        -0.22802369300000    0.05819150000000   -0.01330841360000
C         0.36505145700000   -1.18364096390000   -0.02226302780000
C         1.76202606640000   -1.13635574260000   -0.01935533540000
C         2.26162463300000    0.14421212970000   -0.00794375910000
C         3.61625935040000    0.61339402090000    0.00146564340000
C         4.70873938540000   -0.14351260220000    0.00859718610000
F         4.75749922870000   -1.47121743680000    0.00730261960000
F         5.94519753600000    0.34619908750000    0.01852880160000
S         0.97303136380000    1.31464680530000   -0.00225991160000
S        -2.81572607150000   -0.88961145120000   -0.00325028720000
H        -6.98079100070000   -1.59658885560000    0.02945348140000
H        -5.24854613710000   -2.20090226600000    0.02111321000000
H        -6.18764330890000    0.71588173910000    0.01490779070000
H        -4.23675387440000    2.42736128640000    0.00481544130000
H        -1.63903623330000    2.52557041140000   -0.00883786910000
H        -0.20658588710000   -2.09466604370000   -0.03047338530000
H         2.38476377500000   -2.01174396230000   -0.02522995660000
H         3.77125371550000    1.68151579990000    0.00485693260000
$end

$rem
BASIS = 6-31G*
GUI = 2
METHOD = B3LYP
PRINT_ORBITALS false
MOLDEN_FORMAT false
--------------------------------------------------------------

             Standard Nuclear Orientation (Angstroms)
    I     Atom           X                Y                Z
 ----------------------------------------------------------------
    1      C       5.8249096698    -1.3485460339    -0.0209803243
    2      C       5.3790335589    -0.0948959278    -0.0129350477
    3      C       3.9954584955     0.2880123650    -0.0036423529
    4      C       3.4901935778     1.5660367933    -0.0004549621
    5      C       2.0928106131     1.6178668925     0.0065653450
    6      C       1.5049804659     0.3746217763     0.0095034866
    7      C       0.1176042566     0.0565130870     0.0132791107
    8      C      -0.4712113391    -1.1873464468     0.0219878161
    9      C      -1.8683393274    -1.1448506655     0.0188415454
   10      C      -2.3723233859     0.1339981241     0.0074894694
   11      C      -3.7285570705     0.5985340034    -0.0021027643
   12      C      -4.8184343724    -0.1621128883    -0.0095118668
   13      F      -4.8626421206    -1.4899772320    -0.0083779796
   14      F      -6.0565624820     0.3233578946    -0.0196033197
   15      S      -1.0877495522     1.3088444814     0.0021648282
   16      S       2.7085426804    -0.8824112481     0.0035643323
   17      H       6.8760126368    -1.5751008918    -0.0284929834
   18      H       5.1458484143    -2.1853506706    -0.0205245263
   19      H       6.0749387829     0.7346351315    -0.0138208025
   20      H       4.1181912810     2.4394148645    -0.0038730527
   21      H       1.5201498578     2.5287156210     0.0093377918
   22      H       0.1035446535    -2.0964072661     0.0301936075
   23      H      -2.4880731235    -2.0223694538     0.0245070736
   24      H      -3.8872119847     1.6661184936    -0.0053987119
 ----------------------------------------------------------------

    9   -1458.0872190258      8.21e-06  Convergence criterion met
 Total energy in the final basis set =    -1458.0872190258

                    Orbital Energies (a.u.)
 --------------------------------------------------------------

 Alpha MOs
 -- Occupied --
-88.9134 -88.9071 -24.7488 -24.7411 -10.3626 -10.2326 -10.2293 -10.2288
-10.2204 -10.2156 -10.1999 -10.1960 -10.1945 -10.1943 -10.1936 -10.1832
 -7.9751  -7.9690  -5.9392  -5.9357  -5.9331  -5.9319  -5.9296  -5.9257
 -1.2901  -1.2305  -0.9057  -0.8851  -0.8194  -0.7960  -0.7552  -0.7504
 -0.7317  -0.6989  -0.6492  -0.6211  -0.5937  -0.5783  -0.5737  -0.5399
 -0.5371  -0.5281  -0.5240  -0.4901  -0.4741  -0.4581  -0.4469  -0.4463
 -0.4301  -0.4206  -0.4139  -0.4119  -0.3949  -0.3886  -0.3845  -0.3837
 -0.3677  -0.3516  -0.3377  -0.3251  -0.2908  -0.2636  -0.2559  -0.2376
 -0.1866

          Ground-State Mulliken Net Atomic Charges

     Atom                 Charge (a.u.)
  ----------------------------------------
      1 C                    -0.375831
      2 C                    -0.057967
      3 C                    -0.130870
      4 C                    -0.142542
      5 C                    -0.147686
      6 C                    -0.147651
      7 C                    -0.143820
      8 C                    -0.145399
      9 C                    -0.138139
     10 C                    -0.109248
     11 C                    -0.267782
     12 C                     0.556177
     13 F                    -0.235658
     14 F                    -0.243471
     15 S                     0.256267
     16 S                     0.260253
     17 H                     0.147741
     18 H                     0.155341
     19 H                     0.139440
     20 H                     0.141059
     21 H                     0.151814
     22 H                     0.156488
     23 H                     0.150022
     24 H                     0.171464
  ----------------------------------------
  Sum of atomic charges =     0.000000

                    Cartesian Multipole Moments
 -----------------------------------------------------------------
    Charge (ESU x 10^10)
                 0.0000
    Dipole Moment (Debye)
         X       0.6925      Y       0.6782      Z       0.0028
       Tot       0.9693
    Quadrupole Moments (Debye-Ang)
        XX     -98.1807     XY       0.7886     YY     -95.8712
        XZ      -0.0753     YZ      -0.0371     ZZ    -108.7435

 Total job time:  41.05s(wall), 40.92s(cpu)
        *  Thank you very much for using Q-Chem.  Have a nice day.  *
