 Q-Chem 5.4, Q-Chem, Inc., Pleasanton, CA (2021)
 Q-Chem 5.4.2 for Intel X86 EM64T Linux

User input:
--------------------------------------------------------------
$molecule
0 1
C           -3.47564921540000        1.79505283850000        0.41179489520000
C           -2.47178976590000        1.54794150220000       -0.41488146470000
C           -1.54270308050000        0.41649495960000       -0.26891185750000
C           -2.09153108850000       -0.84801524410000       -0.08209083650000
C           -1.28680570110000       -1.97193692400000       -0.08373696920000
Cl          -1.99390198440000       -3.53549988540000        0.12743417460000
C            0.07394886130000       -1.85504409610000       -0.28827288950000
C            0.65477803900000       -0.59631410010000       -0.41361065710000
C            2.10029297130000       -0.54680746290000       -0.63605640750000
C            2.97844009980000        0.31656621020000       -0.15627900770000
F            2.77531701530000        1.31682271350000        0.68460078650000
F            4.28067320710000        0.24861031180000       -0.43254640230000
C           -0.14991568290000        0.55759342990000       -0.38716798360000
O            0.49363786340000        1.74507899680000       -0.55756507520000
C            0.11083977880000        2.88832967410000        0.19811204720000
C            0.00944964200000        2.62498950340000        1.69441024630000
H           -4.15874777970000        2.61063386140000        0.24859350590000
H           -3.64096802550000        1.19981035620000        1.29477367820000
H           -2.31858317940000        2.16167539490000       -1.29387758790000
H           -3.16085574000000       -0.94680290700000        0.01858240910000
H            0.69504942720000       -2.73598335970000       -0.32565907950000
H            2.51317591310000       -1.33341941990000       -1.25134226800000
H           -0.83102618570000        3.30775544560000       -0.17042680240000
H            0.91372124220000        3.60173092060000       -0.00414588060000
H           -0.78888057830000        1.91797722120000        1.90821430210000
H           -0.20595495130000        3.55894894350000        2.20569607770000
H            0.94547841230000        2.22401634310000        2.07158299260000
$end

$rem
BASIS = 6-31G*
GUI = 2
METHOD = B3LYP
PRINT_ORBITALS false
MOLDEN_FORMAT false
$end
--------------------------------------------------------------

             Standard Nuclear Orientation (Angstroms)
    I     Atom           X                Y                Z
 ----------------------------------------------------------------
    1      C       1.9537193798     3.3154387096     0.0134223559
    2      C       1.2482644482     2.4660348586     0.7435169034
    3      C       1.0724672160     1.0430974697     0.4133275724
    4      C       2.2136101247     0.3042958934     0.1182590644
    5      C       2.1399743050    -1.0648741797    -0.0570597264
    6      Cl      3.5751793327    -1.9657322892    -0.4004963800
    7      C       0.9320244318    -1.7209524267     0.0754932541
    8      C      -0.2335596464    -0.9961733567     0.3069718678
    9      C      -1.4765333482    -1.7561516115     0.4444341081
   10      C      -2.6857101019    -1.4426694408     0.0127359045
   11      F      -3.0605117604    -0.3903869193    -0.6951313853
   12      F      -3.7442130647    -2.2310960345     0.1990360043
   13      C      -0.1763151667     0.4012172991     0.4611023758
   14      O      -1.3560184255     1.0271593607     0.7253277797
   15      C      -1.6555008550     2.2839637353     0.1292091367
   16      C      -1.4424077196     2.3107492242    -1.3782424079
   17      H       2.0922654586     4.3408286333     0.3097519621
   18      H       2.4050123604     3.0202415563    -0.9195775043
   19      H       0.7971954025     2.7836646569     1.6754094729
   20      H       3.1671475328     0.8063466950     0.0728639226
   21      H       0.8827807681    -2.7936059999    -0.0255364431
   22      H      -1.3955933926    -2.7130785477     0.9399610467
   23      H      -1.0837865367     3.0903543278     0.6000884281
   24      H      -2.7141525339     2.4246432760     0.3614463894
   25      H      -0.3911378156     2.1744591803    -1.6214836357
   26      H      -1.7680973620     3.2718067189    -1.7660404541
   27      H      -2.0192101136     1.5240030706    -1.8552309851
 ----------------------------------------------------------------

    9   -1198.9349247741      5.43e-06  Convergence criterion met
 Total energy in the final basis set =    -1198.9349247741

                    Orbital Energies (a.u.)
 --------------------------------------------------------------

 Alpha MOs
 -- Occupied --
******** -24.7397 -24.7314 -19.1750 -10.3556 -10.2559 -10.2454 -10.2413
-10.2126 -10.2078 -10.2032 -10.2019 -10.2014 -10.2008 -10.1918 -10.1782
 -9.4639  -7.2278  -7.2182  -7.2178  -1.2832  -1.2213  -1.0670  -0.8985
 -0.8507  -0.8228  -0.7818  -0.7708  -0.7393  -0.7222  -0.6550  -0.6518
 -0.6230  -0.5954  -0.5763  -0.5651  -0.5349  -0.5203  -0.5153  -0.4964
 -0.4843  -0.4721  -0.4607  -0.4526  -0.4431  -0.4377  -0.4339  -0.4320
 -0.4122  -0.4028  -0.3966  -0.3920  -0.3849  -0.3771  -0.3569  -0.3542
 -0.3274  -0.3120  -0.3052  -0.2915  -0.2712  -0.2361  -0.2179

          Ground-State Mulliken Net Atomic Charges

     Atom                 Charge (a.u.)
  ----------------------------------------
      1 C                    -0.330871
      2 C                    -0.142958
      3 C                     0.110776
      4 C                    -0.192426
      5 C                    -0.066395
      6 Cl                   -0.019919
      7 C                    -0.197962
      8 C                     0.127870
      9 C                    -0.314268
     10 C                     0.569975
     11 F                    -0.226905
     12 F                    -0.249977
     13 C                     0.267116
     14 O                    -0.535409
     15 C                    -0.032518
     16 C                    -0.476482
     17 H                     0.149013
     18 H                     0.151524
     19 H                     0.157411
     20 H                     0.154076
     21 H                     0.151921
     22 H                     0.169519
     23 H                     0.141319
     24 H                     0.154112
     25 H                     0.164681
     26 H                     0.150589
     27 H                     0.166187
  ----------------------------------------
  Sum of atomic charges =     0.000000

                    Cartesian Multipole Moments
 -----------------------------------------------------------------
    Charge (ESU x 10^10)
                 0.0000
    Dipole Moment (Debye)
         X      -0.4429      Y       2.1272      Z      -0.0201
       Tot       2.1729
    Quadrupole Moments (Debye-Ang)
        XX    -104.4237     XY       2.1506     YY     -88.4471
        XZ       0.4491     YZ      -0.8490     ZZ     -98.7166

 Total job time:  70.02s(wall), 68.32s(cpu)
        *  Thank you very much for using Q-Chem.  Have a nice day.  *
