 Q-Chem 5.2, Q-Chem, Inc., Pleasanton, CA (2019)
 Q-Chem 5.2.1 for Intel X86 EM64T Linux

User input:
--------------------------------------------------------------
$molecule
0 1
C        -3.00235243740000   -2.81751588380000   -0.08637390160000
C        -2.85763860960000   -1.56205388030000    0.33149570740000
C        -1.74590636970000   -0.70511516060000    0.01945886410000
C        -0.62847083290000   -0.94620536520000   -0.73878512710000
C         0.25620902540000    0.14362262800000   -0.82384899030000
C         1.55545816800000    0.08135575090000   -1.56598614330000
C         2.74306860070000   -0.13675757140000   -0.61852505740000
C         2.67216477810000   -1.48055323950000    0.10161604570000
C         3.86156233940000   -1.68244038790000    1.03186348260000
C        -0.18754058310000    1.24202513510000   -0.11581765100000
C         0.44905057750000    2.52285010590000    0.01564385640000
C         0.00288951810000    3.52215557020000    0.77279193540000
S        -1.71285305810000    0.91199591400000    0.65346291890000
H        -3.86316195040000   -3.40167068640000    0.18674966960000
H        -2.27186223340000   -3.30177817470000   -0.71081596810000
H        -3.61678218350000   -1.11339509550000    0.95928531530000
H        -0.44363935480000   -1.88549079250000   -1.22880307440000
H         1.70917417360000    1.00692987150000   -2.12561321460000
H         1.51470679990000   -0.74123636920000   -2.28293741570000
H         2.76576234510000    0.66564227710000    0.12226989860000
H         3.66907439870000   -0.08650669710000   -1.19659902620000
H         2.64853083670000   -2.28555798120000   -0.63699585330000
H         1.74702562280000   -1.53234108120000    0.67977064980000
H         4.79450920280000   -1.65137201020000    0.47263891380000
H         3.79506679160000   -2.64405466800000    1.53527955060000
H         3.89020837560000   -0.90079338740000    1.78801862260000
H         1.35722161070000    2.64657885280000   -0.55964658680000
H        -0.89513238220000    3.42465223210000    1.36036873330000
H         0.52029756280000    4.46335981330000    0.82943350260000
$end

$rem
BASIS = 6-31G*
GUI = 2
METHOD = B3LYP
PRINT_ORBITALS false
MOLDEN_FORMAT false
--------------------------------------------------------------

             Standard Nuclear Orientation (Angstroms)
    I     Atom           X                Y                Z
 ----------------------------------------------------------------
    1      C       3.1548370698    -2.7044053421     0.0232664057
    2      C       2.9943357204    -1.4250020503    -0.3070493193
    3      C       1.8460141571    -0.6213799685     0.0142117443
    4      C       0.7023009716    -0.9460283232     0.6984954655
    5      C      -0.2154379342     0.1123655114     0.8216910767
    6      C      -1.5449642160    -0.0372538777     1.4944963657
    7      C      -2.6815281453    -0.2125116692     0.4780409502
    8      C      -2.5403132830    -1.4962437213    -0.3352903102
    9      C      -3.6799008522    -1.6566635814    -1.3334841360
   10      C       0.2293140482     1.2713978562     0.2187401185
   11      C      -0.4361427267     2.5425313160     0.1521815155
   12      C       0.0160276528     3.6065272236    -0.5069079866
   13      S       1.7967773585     1.0375159860    -0.4993462760
   14      H       4.0431990529    -3.2451569334    -0.2510090757
   15      H       2.4104156047    -3.2519472317     0.5747084790
   16      H       3.7685168710    -0.9120000788    -0.8630942690
   17      H       0.5216035087    -1.9237245776     1.1083684201
   18      H      -1.7498623170     0.8396044223     2.1130711889
   19      H      -1.5140213986    -0.9101625366     2.1497906602
   20      H      -2.6927866940     0.6425015146    -0.2016379375
   21      H      -3.6339996382    -0.2285080623     1.0135067028
   22      H      -2.5279434619    -2.3536665810     0.3420661408
   23      H      -1.5886605753    -1.4817946171    -0.8709912817
   24      H      -4.6379071351    -1.6905354500    -0.8185434882
   25      H      -3.5636574778    -2.5758067656    -1.9028826818
   26      H      -3.6958222500    -0.8213293861    -2.0302814636
   27      H      -1.3727305123     2.6004282197     0.6911562745
   28      H       0.9423091300     3.5754489760    -1.0566656564
   29      H      -0.5243452193     4.5363930705    -0.5183729342
 ----------------------------------------------------------------

    9    -865.0596534507      3.77e-06  Convergence criterion met
 Total energy in the final basis set =     -865.0596534507

                    Orbital Energies (a.u.)
 --------------------------------------------------------------

 Alpha MOs
 -- Occupied --
-88.8997 -10.2163 -10.2114 -10.1978 -10.1954 -10.1926 -10.1875 -10.1839
-10.1820 -10.1791 -10.1788 -10.1741 -10.1674  -7.9616  -5.9256  -5.9220
 -5.9185  -0.8892  -0.8130  -0.7993  -0.7719  -0.7529  -0.7118  -0.6948
 -0.6362  -0.6227  -0.5880  -0.5719  -0.5342  -0.5231  -0.4890  -0.4636
 -0.4600  -0.4527  -0.4299  -0.4245  -0.4217  -0.4061  -0.3876  -0.3802
 -0.3774  -0.3619  -0.3560  -0.3543  -0.3343  -0.3333  -0.3261  -0.3198
 -0.3149  -0.2681  -0.2444  -0.1947

          Ground-State Mulliken Net Atomic Charges

     Atom                 Charge (a.u.)
  ----------------------------------------
      1 C                    -0.341541
      2 C                    -0.088518
      3 C                    -0.127605
      4 C                    -0.162391
      5 C                     0.156003
      6 C                    -0.349032
      7 C                    -0.246761
      8 C                    -0.254838
      9 C                    -0.441622
     10 C                    -0.203476
     11 C                    -0.055654
     12 C                    -0.377868
     13 S                     0.232994
     14 H                     0.146689
     15 H                     0.142380
     16 H                     0.137320
     17 H                     0.132986
     18 H                     0.145959
     19 H                     0.142380
     20 H                     0.140854
     21 H                     0.129433
     22 H                     0.125404
     23 H                     0.151135
     24 H                     0.140337
     25 H                     0.142734
     26 H                     0.144819
     27 H                     0.138140
     28 H                     0.155337
     29 H                     0.144402
  ----------------------------------------
  Sum of atomic charges =     0.000000

                    Cartesian Multipole Moments
 -----------------------------------------------------------------
    Charge (ESU x 10^10)
                -0.0000
    Dipole Moment (Debye)
         X      -0.7476      Y      -0.5922      Z       0.4446
       Tot       1.0523
    Quadrupole Moments (Debye-Ang)
        XX     -83.6936     XY      -2.9514     YY     -82.0906
        XZ      -3.8754     YZ      -1.9643     ZZ     -88.1279

 Total job time:  42.52s(wall), 42.38s(cpu)
        *  Thank you very much for using Q-Chem.  Have a nice day.  *
