 Q-Chem 5.2, Q-Chem, Inc., Pleasanton, CA (2019)
 Q-Chem 5.2.1 for Intel X86 EM64T Linux

User input:
--------------------------------------------------------------
$molecule
0 1
C         3.94789716920000   -2.07253413250000    0.12948599390000
C         3.72479232910000   -0.77778909320000   -0.06152355130000
C         2.43101635340000   -0.10545493790000   -0.04246070120000
C         2.41091092160000    1.30966654870000   -0.05342096900000
C         1.23640101640000    2.00270611200000   -0.02898437710000
C        -0.00003364250000    1.32652647280000   -0.00012963310000
C        -1.23649379310000    2.00268115340000    0.02838170920000
C        -2.41098010350000    1.30961103020000    0.05318540050000
C        -2.43099894090000   -0.10550606540000    0.04290026250000
C        -3.72471814190000   -0.77795858410000    0.06236022170000
C        -3.94782868720000   -2.07242619170000   -0.13076275960000
C        -1.22971895780000   -0.77895929490000    0.02083681830000
C         0.00000221080000   -0.09364096280000    0.00026495580000
C         1.22974166800000   -0.77892200630000   -0.01995467460000
H         4.94416591450000   -2.47944469860000    0.10056635050000
H         3.15784358820000   -2.77645930630000    0.32755151880000
H         4.56961640190000   -0.12242136920000   -0.23779815530000
H         3.35209125580000    1.84128448820000   -0.07637320900000
H         1.23714920060000    3.08379369450000   -0.03389784820000
H        -1.23728460990000    3.08377051780000    0.03278523440000
H        -3.35218949660000    1.84118036270000    0.07598698720000
H        -4.56941062600000   -0.12293670350000    0.24059009300000
H        -3.15781933420000   -2.77580048150000   -0.33121169020000
H        -4.94404776390000   -2.47950771980000   -0.10193324860000
H        -1.20929078010000   -1.85861916660000    0.02899253140000
H         1.20930254980000   -1.85858064510000   -0.02738805990000
$end

$rem
BASIS = 6-31G*
GUI = 2
METHOD = B3LYP
PRINT_ORBITALS false
MOLDEN_FORMAT false
--------------------------------------------------------------

             Standard Nuclear Orientation (Angstroms)
    I     Atom           X                Y                Z
 ----------------------------------------------------------------
    1      C       3.9479189286    -2.0486184291     0.1288395410
    2      C       3.7247809296    -0.7538760161    -0.0621490716
    3      C       2.4310082902    -0.0815415838    -0.0428707757
    4      C       2.4109009679     1.3335797521    -0.0538470266
    5      C       1.2363953308     2.0266196650    -0.0292159877
    6      C      -0.0000343042     1.3504404371    -0.0001371984
    7      C      -1.2364894783     2.0265955240     0.0285795826
    8      C      -2.4109714694     1.3335257556     0.0535967927
    9      C      -2.4309921055    -0.0815914811     0.0433346068
   10      C      -3.7247079133    -0.7540437172     0.0630285091
   11      C      -3.9478520079    -2.0485139800    -0.1300379054
   12      C      -1.2297159785    -0.7550450279     0.0210717966
   13      C       0.0000016049    -0.0697269930     0.0002769289
   14      C       1.2297375257    -0.7550083287    -0.0201468475
   15      H       4.9441826326    -2.4555294045     0.0997524693
   16      H       3.1578997526    -2.7525408680     0.3270519645
   17      H       4.5695743808    -0.0985107277    -0.2385794186
   18      H       3.3520773065     1.8651973650    -0.0769700437
   19      H       1.2371426713     3.1077071798    -0.0341444668
   20      H      -1.2372795206     3.1076849490     0.0329683669
   21      H      -3.3521768834     1.8650954126     0.0765545298
   22      H      -4.5693694244    -0.0990193743     0.2413960667
   23      H      -3.1578774864    -2.7518910373    -0.3306143594
   24      H      -4.9440660662    -2.4555950999    -0.1010297724
   25      H      -1.2092863943    -1.8347047875     0.0292388201
   26      H       1.2092971071    -1.8346670694    -0.0275618244
 ----------------------------------------------------------------

    8    -540.6886208775      2.57e-06  Convergence criterion met
 Total energy in the final basis set =     -540.6886208775

                    Orbital Energies (a.u.)
 --------------------------------------------------------------

 Alpha MOs
 -- Occupied --
-10.1948 -10.1948 -10.1941 -10.1929 -10.1899 -10.1899 -10.1877 -10.1877
-10.1870 -10.1870 -10.1862 -10.1862 -10.1798 -10.1798  -0.8803  -0.8394
 -0.7983  -0.7699  -0.7679  -0.7243  -0.7099  -0.6478  -0.6219  -0.6027
 -0.5678  -0.5643  -0.5177  -0.5031  -0.4862  -0.4685  -0.4478  -0.4437
 -0.4311  -0.4207  -0.4114  -0.4077  -0.3964  -0.3706  -0.3617  -0.3601
 -0.3503  -0.3350  -0.3296  -0.3087  -0.2781  -0.2679  -0.2201  -0.2052

          Ground-State Mulliken Net Atomic Charges

     Atom                 Charge (a.u.)
  ----------------------------------------
      1 C                    -0.347400
      2 C                    -0.118305
      3 C                     0.176993
      4 C                    -0.196895
      5 C                    -0.194997
      6 C                     0.147565
      7 C                    -0.194995
      8 C                    -0.196861
      9 C                     0.176933
     10 C                    -0.118343
     11 C                    -0.347365
     12 C                    -0.268399
     13 C                     0.157042
     14 C                    -0.268416
     15 H                     0.144224
     16 H                     0.143056
     17 H                     0.127155
     18 H                     0.127278
     19 H                     0.128914
     20 H                     0.128916
     21 H                     0.127276
     22 H                     0.127177
     23 H                     0.143057
     24 H                     0.144223
     25 H                     0.126090
     26 H                     0.126078
  ----------------------------------------
  Sum of atomic charges =     0.000000

                    Cartesian Multipole Moments
 -----------------------------------------------------------------
    Charge (ESU x 10^10)
                 0.0000
    Dipole Moment (Debye)
         X      -0.0003      Y       0.1853      Z      -0.0003
       Tot       0.1853
    Quadrupole Moments (Debye-Ang)
        XX     -72.7471     XY       0.0003     YY     -72.4029
        XZ      -0.6566     YZ       0.0027     ZZ     -87.3071

 Total job time:  36.27s(wall), 34.48s(cpu)
        *  Thank you very much for using Q-Chem.  Have a nice day.  *
