 Q-Chem 5.2, Q-Chem, Inc., Pleasanton, CA (2019)
 Q-Chem 5.2.1 for Intel X86 EM64T Linux

User input:
--------------------------------------------------------------
$molecule
0 1
C        -4.33778083400000   -1.80872018010000   -0.01659108700000
C        -3.08972004030000   -2.09253770870000    0.34220033290000
C        -1.99199326730000   -1.17174607110000    0.21006243010000
N        -0.75650080340000   -1.41564803220000    0.55270963500000
C        -0.06002280150000   -0.28866363530000    0.25195615130000
C         1.40491595020000   -0.21133888630000    0.47381070300000
O         1.95138025930000   -0.36902222610000    1.53139297830000
O         2.03623869290000    0.03656376120000   -0.67971169470000
C         3.46438268820000    0.10107508180000   -0.63285876830000
C         3.95431542540000    1.47793462180000   -0.20808513670000
C        -0.93452105360000    0.64386345850000   -0.27755932300000
C        -0.80240118590000    2.00338736300000   -0.72870810720000
C         0.24944149890000    2.78130020140000   -0.49644078840000
O        -2.15928644370000    0.06516607260000   -0.30091946340000
H        -5.13248618850000   -2.52390435300000    0.09953047440000
H        -4.59775047870000   -0.85124710540000   -0.43586071970000
H        -2.81046725110000   -3.04537327840000    0.76504337090000
H         3.78880538870000   -0.13606842800000   -1.64790356710000
H         3.82803592730000   -0.66032409640000    0.06481941800000
H         3.56113929770000    2.24151745330000   -0.87532012720000
H         5.03974636380000    1.50170142380000   -0.24367316440000
H         3.63442720870000    1.69019638680000    0.80944788990000
H        -1.66173643820000    2.37559045360000   -1.27028541080000
H         1.09582884260000    2.43692822530000    0.07018293160000
H         0.28693805260000    3.79174347190000   -0.86314573770000
$end

$rem
BASIS = 6-31G*
GUI = 2
METHOD = B3LYP
PRINT_ORBITALS false
MOLDEN_FORMAT false
--------------------------------------------------------------

             Standard Nuclear Orientation (Angstroms)
    I     Atom           X                Y                Z
 ----------------------------------------------------------------
    1      C       4.7344895779     0.1753132811    -0.2486301909
    2      C       3.6715982031     0.9582037146    -0.0927972296
    3      C       2.3221949050     0.4655085567    -0.0110417783
    4      N       1.2569444109     1.2036421858     0.1430264932
    5      C       0.2081943187     0.3402491194     0.1604550075
    6      C      -1.1863776922     0.8313260024     0.2839722384
    7      O      -1.6062895489     1.4931518799     1.1937129083
    8      O      -1.9076032855     0.4512909774    -0.7771804714
    9      C      -3.2698760143     0.8852135576    -0.8204977361
   10      C      -4.1819033079    -0.0353116843    -0.0223446100
   11      C       0.6931940593    -0.9479676493     0.0189862140
   12      C       0.0901242720    -2.2539237212     0.0099473017
   13      C      -1.1538146278    -2.5181529920     0.3950037016
   14      O       2.0398880183    -0.8508062930    -0.0926456490
   15      H       5.7286720638     0.5816295454    -0.3037436806
   16      H       4.6376745886    -0.8947398718    -0.3243866278
   17      H       3.7488514967     2.0317226366    -0.0136579172
   18      H      -3.5326737707     0.8773006273    -1.8800626473
   19      H      -3.3265527629     1.9055224260    -0.4274521946
   20      H      -4.0970697148    -1.0576122325    -0.3836666146
   21      H      -5.2113866680     0.2939908508    -0.1305829682
   22      H      -3.9148207027    -0.0030339833     1.0314020485
   23      H       0.7507506032    -3.0443281376    -0.3204038770
   24      H      -1.8107774492    -1.7486821268     0.7587900021
   25      H      -1.5461821947    -3.5191066596     0.3631672112
 ----------------------------------------------------------------

    9    -668.0654432333      8.66e-06  Convergence criterion met
 Total energy in the final basis set =     -668.0654432333

                    Orbital Energies (a.u.)
 --------------------------------------------------------------

 Alpha MOs
 -- Occupied --
-19.2376 -19.1942 -19.1393 -14.3352 -10.3211 -10.2812 -10.2632 -10.2447
-10.2287 -10.2112 -10.2083 -10.1976 -10.1976 -10.1844  -1.1528  -1.1122
 -1.0232  -0.9353  -0.8375  -0.7975  -0.7815  -0.7391  -0.6912  -0.6535
 -0.6327  -0.6004  -0.5850  -0.5539  -0.5260  -0.5027  -0.4940  -0.4850
 -0.4795  -0.4607  -0.4562  -0.4418  -0.4340  -0.4166  -0.4084  -0.3934
 -0.3820  -0.3786  -0.3719  -0.3467  -0.3412  -0.3258  -0.3035  -0.2931
 -0.2921  -0.2755  -0.2167

          Ground-State Mulliken Net Atomic Charges

     Atom                 Charge (a.u.)
  ----------------------------------------
      1 C                    -0.342322
      2 C                    -0.100463
      3 C                     0.500362
      4 N                    -0.484534
      5 C                     0.155024
      6 C                     0.532742
      7 O                    -0.455132
      8 O                    -0.437341
      9 C                    -0.047043
     10 C                    -0.471286
     11 C                     0.310865
     12 C                    -0.113080
     13 C                    -0.346333
     14 O                    -0.479346
     15 H                     0.156431
     16 H                     0.163051
     17 H                     0.167265
     18 H                     0.155734
     19 H                     0.172216
     20 H                     0.159116
     21 H                     0.155539
     22 H                     0.177947
     23 H                     0.151890
     24 H                     0.164085
     25 H                     0.154611
  ----------------------------------------
  Sum of atomic charges =     0.000000

                    Cartesian Multipole Moments
 -----------------------------------------------------------------
    Charge (ESU x 10^10)
                 0.0000
    Dipole Moment (Debye)
         X      -0.1478      Y      -2.4928      Z      -1.6014
       Tot       2.9665
    Quadrupole Moments (Debye-Ang)
        XX     -62.7067     XY       1.5779     YY     -79.3254
        XZ       2.3590     YZ      -3.5437     ZZ     -84.7840

 Total job time:  35.92s(wall), 35.67s(cpu)
        *  Thank you very much for using Q-Chem.  Have a nice day.  *
