 Q-Chem 5.2, Q-Chem, Inc., Pleasanton, CA (2019)
 Q-Chem 5.2.1 for Intel X86 EM64T Linux

User input:
--------------------------------------------------------------
$molecule
0 1
C        -5.67447949050000   -1.64600676040000   -1.12237186900000
C        -5.17174537590000   -0.57677214440000   -0.51530712100000
C        -3.80126329330000   -0.39542802120000   -0.06467867600000
C        -3.43424999730000    0.78825520750000    0.57169006270000
C        -2.14287959080000    1.00614437520000    1.00821828900000
C        -1.14071524880000    0.04441567770000    0.84945480850000
C        -1.52032800700000   -1.15134408610000    0.22816668040000
C        -2.80630253990000   -1.35940525950000   -0.22776614800000
S        -0.39291582330000   -2.50588918870000    0.05779482600000
C         1.14974547260000   -1.64110566440000    0.14135580490000
C         2.24798051810000   -2.28784429870000   -0.38826243650000
C         3.52737531520000   -1.73885041920000   -0.30189877120000
C         4.71486002480000   -2.39238070100000   -0.82824141070000
C         4.76944753460000   -3.57024642590000   -1.43992308060000
C         3.64214041160000   -0.50311721770000    0.33104919140000
C         2.54097362380000    0.15476408100000    0.84125422190000
C         1.25711424760000   -0.39276245540000    0.76561659110000
N         0.15707045290000    0.27510493480000    1.29468349320000
C         0.38577449950000    1.34345004210000    2.24371644040000
C         0.62095012970000    2.75298131580000    1.63878066980000
C         0.55898901130000    2.81538671350000    0.11125643470000
C         0.76800789180000    4.24458687450000   -0.38515621760000
C         0.76424801970000    4.35107439280000   -1.91031375990000
C        -0.60058962070000    4.06790422370000   -2.52759930060000
H        -6.70836153910000   -1.68543948190000   -1.41936231150000
H        -5.08633675000000   -2.51882725190000   -1.34698544300000
H        -5.82123512700000    0.26804708900000   -0.31839325900000
H        -4.17302139580000    1.56194411020000    0.72469349730000
H        -1.92181675210000    1.94869311030000    1.48001433220000
H        -3.02803055320000   -2.30467540080000   -0.69675085600000
H         2.09167057750000   -3.24770141090000   -0.85399346690000
H         5.63153112740000   -1.83170312160000   -0.68790434380000
H         3.89862736220000   -4.17920969070000   -1.61035659320000
H         5.70241171080000   -3.97237117680000   -1.79567445860000
H         4.61421392060000   -0.04000208360000    0.42290055240000
H         2.69557800540000    1.11449295620000    1.30467218430000
H         1.24541164970000    1.05232082080000    2.85290931180000
H        -0.47706871930000    1.36598150120000    2.91439517410000
H         1.59666683080000    3.12412239750000    1.96101650980000
H        -0.12433157090000    3.44305550170000    2.04117517880000
H        -0.40955254970000    2.45373806830000   -0.23293837080000
H         1.32848102130000    2.17442845390000   -0.32307434300000
H         1.72580771400000    4.61396307400000   -0.00907795880000
H        -0.01549799820000    4.88925208530000    0.02106332860000
H         1.49994023100000    3.65601741110000   -2.32136088700000
H         1.07312504110000    5.36158544640000   -2.18851380900000
H        -0.90313479500000    3.03753525440000   -2.35904184460000
H        -0.57035429640000    4.23821878700000   -3.60133212980000
H        -1.35555104090000    4.72353326000000   -2.09860950610000
$end

$rem
BASIS = 6-31G*
GUI = 2
METHOD = B3LYP
PRINT_ORBITALS false
MOLDEN_FORMAT false
--------------------------------------------------------------

             Standard Nuclear Orientation (Angstroms)
    I     Atom           X                Y                Z
 ----------------------------------------------------------------
    1      C       4.9651179404    -3.2356812462     1.1613497360
    2      C       4.7848099569    -2.0757967923     0.5395065506
    3      C       3.5220643230    -1.5232935592     0.0764876885
    4      C       3.5042360049    -0.2919125203    -0.5747824589
    5      C       2.3276073115     0.2736825336    -1.0234663805
    6      C       1.0954412153    -0.3669020330    -0.8625955534
    7      C       1.1220496071    -1.6135849989    -0.2261839154
    8      C       2.2961637762    -2.1680021818     0.2417607401
    9      S      -0.3404448945    -2.5960178955    -0.0506485283
   10      C      -1.5786782018    -1.3348538595    -0.1549577119
   11      C      -2.8165070694    -1.6417240781     0.3727703634
   12      C      -3.8904714860    -0.7574550843     0.2709234806
   13      C      -5.2158631489    -1.0458875375     0.7947574227
   14      C      -5.6010079415    -2.1539015937     1.4180312530
   15      C      -3.6515888141     0.4532821679    -0.3755137330
   16      C      -2.4079121386     0.7702599817    -0.8839217021
   17      C      -1.3292022513    -0.1139795388    -0.7927805664
   18      N      -0.0837205278     0.2126722869    -1.3201597936
   19      C       0.0003277196     1.2908536445    -2.2818204387
   20      C       0.1666968365     2.7169890390    -1.6931843638
   21      C       0.2367312649     2.7778570699    -0.1659469348
   22      C       0.4342117356     4.2142454845     0.3141752372
   23      C       0.4607359870     4.3337003033     1.8381457970
   24      C       1.6887817044     3.6870332934     2.4688074037
   25      H       5.9451971840    -3.5595332173     1.4666936892
   26      H       4.1549992850    -3.9060888493     1.3903479042
   27      H       5.6458485973    -1.4491171360     0.3389657541
   28      H       4.4308546456     0.2420101017    -0.7299993293
   29      H       2.3815855870     1.2346945084    -1.5065820325
   30      H       2.2420744030    -3.1318464564     0.7220982904
   31      H      -2.9374660492    -2.6012876594     0.8494993479
   32      H      -5.9381138620    -0.2526395081     0.6416195049
   33      H      -4.9364350667    -2.9802967343     1.6014040386
   34      H      -6.6108702812    -2.2743388609     1.7706761617
   35      H      -4.4545741697     1.1689777644    -0.4795980201
   36      H      -2.2853623255     1.7292505265    -1.3583233409
   37      H      -0.9036739288     1.2448526901    -2.8946117081
   38      H       0.8379657912     1.0627800788    -2.9460199270
   39      H      -0.6645067828     3.3426559100    -2.0267203135
   40      H       1.0772720351     3.1658354484    -2.0968652335
   41      H       1.0636067687     2.1635749229     0.1893936160
   42      H      -0.6834699685     2.3833208613     0.2689778157
   43      H      -0.3800428539     4.8325545214    -0.0730424422
   44      H       1.3687765502     4.6087522246    -0.0925704730
   45      H      -0.4420689321     3.8774889007     2.2506035676
   46      H       0.4460550593     5.3935380521     2.1035912488
   47      H       1.6913241195     2.6112220904     2.3131500779
   48      H       1.7026002037     3.8718634671     3.5404744554
   49      H       2.5991200078     4.0997857074     2.0389608717
 ----------------------------------------------------------------

    9   -1306.3019924321      3.27e-06  Convergence criterion met
 Total energy in the final basis set =    -1306.3019924321

                    Orbital Energies (a.u.)
 --------------------------------------------------------------

 Alpha MOs
 -- Occupied --
-88.8881 -14.3758 -10.2393 -10.2391 -10.2271 -10.2209 -10.2208 -10.1915
-10.1915 -10.1905 -10.1905 -10.1903 -10.1902 -10.1891 -10.1884 -10.1884
-10.1876 -10.1876 -10.1756 -10.1755 -10.1755 -10.1753 -10.1745 -10.1661
 -7.9495  -5.9144  -5.9108  -5.9046  -0.9836  -0.8721  -0.8685  -0.8198
 -0.8068  -0.7994  -0.7769  -0.7688  -0.7584  -0.7370  -0.7261  -0.7100
 -0.6851  -0.6600  -0.6425  -0.6247  -0.6156  -0.5904  -0.5850  -0.5699
 -0.5664  -0.5477  -0.5422  -0.5146  -0.4893  -0.4845  -0.4715  -0.4635
 -0.4622  -0.4586  -0.4499  -0.4446  -0.4408  -0.4336  -0.4277  -0.4200
 -0.4147  -0.4097  -0.4021  -0.3967  -0.3855  -0.3808  -0.3739  -0.3722
 -0.3660  -0.3579  -0.3540  -0.3534  -0.3402  -0.3369  -0.3348  -0.3258
 -0.3242  -0.3194  -0.3131  -0.3040  -0.3026  -0.2659  -0.2601  -0.2260
 -0.2172  -0.1745

          Ground-State Mulliken Net Atomic Charges

     Atom                 Charge (a.u.)
  ----------------------------------------
      1 C                    -0.356330
      2 C                    -0.116749
      3 C                     0.203279
      4 C                    -0.219978
      5 C                    -0.176237
      6 C                     0.333633
      7 C                    -0.114129
      8 C                    -0.253734
      9 S                     0.174384
     10 C                    -0.111948
     11 C                    -0.253442
     12 C                     0.202873
     13 C                    -0.116936
     14 C                    -0.356164
     15 C                    -0.220345
     16 C                    -0.174267
     17 C                     0.332261
     18 N                    -0.582622
     19 C                    -0.181728
     20 C                    -0.282936
     21 C                    -0.273176
     22 C                    -0.248119
     23 C                    -0.250858
     24 C                    -0.447074
     25 H                     0.142558
     26 H                     0.142351
     27 H                     0.124571
     28 H                     0.128459
     29 H                     0.134691
     30 H                     0.141102
     31 H                     0.141007
     32 H                     0.124484
     33 H                     0.142344
     34 H                     0.142528
     35 H                     0.128299
     36 H                     0.134408
     37 H                     0.165150
     38 H                     0.164848
     39 H                     0.139705
     40 H                     0.139492
     41 H                     0.156316
     42 H                     0.148142
     43 H                     0.124598
     44 H                     0.124280
     45 H                     0.133726
     46 H                     0.129345
     47 H                     0.155575
     48 H                     0.143438
     49 H                     0.138926
  ----------------------------------------
  Sum of atomic charges =     0.000000

                    Cartesian Multipole Moments
 -----------------------------------------------------------------
    Charge (ESU x 10^10)
                 0.0000
    Dipole Moment (Debye)
         X       0.2050      Y       2.3788      Z      -0.9715
       Tot       2.5777
    Quadrupole Moments (Debye-Ang)
        XX    -142.4285     XY      -0.8468     YY    -147.4918
        XZ      -1.1879     YZ      -7.7319     ZZ    -151.7645

 Total job time:  149.74s(wall), 149.35s(cpu)
        *  Thank you very much for using Q-Chem.  Have a nice day.  *
