 Q-Chem 5.2, Q-Chem, Inc., Pleasanton, CA (2019)
 Q-Chem 5.2.1 for Intel X86 EM64T Linux

User input:
--------------------------------------------------------------
$molecule
0 1
C        -6.08256081620000   -1.10685999370000    0.24359096670000
C        -5.77360226450000    0.13417710910000   -0.10945941100000
C        -4.40377443780000    0.62305205530000   -0.23363841930000
C        -4.15738613740000    1.96105963900000   -0.55744343030000
C        -2.84702472670000    2.39620948240000   -0.65720912350000
C        -1.82289000930000    1.49401234950000   -0.43477158270000
C        -2.15990786330000    0.17478705560000   -0.12211630650000
C        -1.10295267490000   -0.82085398950000    0.11174288080000
C        -1.41187022420000   -2.17386464840000    0.26563408550000
C        -0.37449919440000   -3.06609814000000    0.46418592150000
C         0.92448284530000   -2.58827047700000    0.51801585190000
C         1.13666082060000   -1.21591640250000    0.36914773420000
C         2.49209128450000   -0.63454550340000    0.42654301490000
C         3.47196098420000   -1.16174695870000    1.27032210940000
C         4.72159054720000   -0.56552504480000    1.27884327680000
C         4.95711642610000    0.52382139860000    0.46069289880000
C         3.91543287130000    0.99513675740000   -0.34451992140000
C         4.03361481750000    2.14164727360000   -1.24048142670000
C         5.10282387360000    2.90973866350000   -1.40517515550000
N         2.71902189900000    0.41505565920000   -0.34825710270000
N         0.14205784310000   -0.36561802360000    0.16381875260000
N        -3.41528342590000   -0.24215852060000   -0.02662309430000
H        -7.10229822170000   -1.44055265630000    0.33058623980000
H        -5.30633802710000   -1.82087493000000    0.45700195970000
H        -6.54765459070000    0.86043556130000   -0.32144363920000
H        -4.98194514620000    2.63839511140000   -0.72359964650000
H        -2.62942804680000    3.42559998360000   -0.90556121410000
H        -0.78245777350000    1.76700117910000   -0.49548162590000
H        -2.44103858530000   -2.48863974770000    0.21780182160000
H        -0.57167840030000   -4.12351468730000    0.57304227280000
H         1.75597621710000   -3.26346493950000    0.64979946940000
H         3.25464634640000   -1.99830847720000    1.91607086670000
H         5.50348484210000   -0.94640378070000    1.92115551920000
H         5.92425666450000    0.99998640000000    0.44969075660000
H         3.12653449620000    2.33870170500000   -1.79521141470000
H         6.02501272020000    2.75237348490000   -0.87134479830000
H         5.09446626140000    3.73962350720000   -2.09098377200000
$end

$rem
BASIS = 6-31G*
GUI = 2
METHOD = B3LYP
PRINT_ORBITALS false
MOLDEN_FORMAT false
--------------------------------------------------------------

             Standard Nuclear Orientation (Angstroms)
    I     Atom           X                Y                Z
 ----------------------------------------------------------------
    1      C       6.1352398295    -0.8186315117    -0.0506288723
    2      C       5.7580434561     0.4512670313    -0.1237973958
    3      C       4.3634209743     0.8823864732    -0.1271994115
    4      C       4.0425930733     2.2368698969    -0.2623485389
    5      C       2.7101927530     2.6123151276    -0.2726379384
    6      C       1.7383672816     1.6364830191    -0.1477500098
    7      C       2.1486912214     0.3080657960    -0.0112521066
    8      C       1.1494753124    -0.7611703415     0.1351962800
    9      C       1.5357326178    -2.0694603710     0.4334124617
   10      C       0.5504063161    -3.0285764843     0.5778785438
   11      C      -0.7750777770    -2.6640178565     0.4082902126
   12      C      -1.0659758796    -1.3342540735     0.0958106283
   13      C      -2.4539595406    -0.8764150237    -0.1100117332
   14      C      -3.4115106561    -1.7060747703    -0.6972167477
   15      C      -4.6941499647    -1.2124119755    -0.8653258629
   16      C      -4.9832702349     0.0748731511    -0.4520165035
   17      C      -3.9612036078     0.8421915715     0.1156213503
   18      C      -4.1355915216     2.2154100004     0.5793673555
   19      C      -5.2461093065     2.9381779721     0.5111535624
   20      N      -2.7326982685     0.3593671635     0.2755040694
   21      N      -0.1207805977    -0.4144962705    -0.0268835837
   22      N       3.4251852507    -0.0516482784    -0.0012947817
   23      H       7.1717191247    -1.1092996486    -0.0530888602
   24      H       5.3998848724    -1.6017168800     0.0119314391
   25      H       6.4904916354     1.2452760448    -0.1917312411
   26      H       4.8277683618     2.9720652991    -0.3586619666
   27      H       2.4353677357     3.6526834561    -0.3764494547
   28      H       0.6844831620     1.8601666488    -0.1490705674
   29      H       2.5821987347    -2.2965508695     0.5512995930
   30      H       0.8082523234    -4.0494806611     0.8230910990
   31      H      -1.5668704833    -3.3860068013     0.5364775186
   32      H      -3.1533233090    -2.6986345079    -1.0322044263
   33      H      -5.4601953536    -1.8265977770    -1.3180317055
   34      H      -5.9766063696     0.4766993052    -0.5704794173
   35      H      -3.2348393362     2.6337199675     1.0071672967
   36      H      -6.1640224070     2.5634402566     0.0902282685
   37      H      -5.2781394640     3.9495120770     0.8789708529
 ----------------------------------------------------------------

    9    -897.2798244720      2.80e-06  Convergence criterion met
 Total energy in the final basis set =     -897.2798244720

                    Orbital Energies (a.u.)
 --------------------------------------------------------------

 Alpha MOs
 -- Occupied --
-14.3202 -14.3195 -14.3193 -10.2252 -10.2241 -10.2236 -10.2213 -10.2204
-10.2192 -10.2058 -10.2024 -10.1986 -10.1962 -10.1957 -10.1954 -10.1908
-10.1883 -10.1864 -10.1838 -10.1835 -10.1831 -10.1759  -0.9620  -0.9487
 -0.9343  -0.8156  -0.8079  -0.8038  -0.7986  -0.7965  -0.7687  -0.7385
 -0.7223  -0.6607  -0.6565  -0.6433  -0.6306  -0.6040  -0.5992  -0.5646
 -0.5629  -0.5273  -0.5099  -0.5031  -0.4943  -0.4851  -0.4753  -0.4705
 -0.4549  -0.4513  -0.4353  -0.4271  -0.4208  -0.4188  -0.4099  -0.4078
 -0.4029  -0.3938  -0.3858  -0.3801  -0.3734  -0.3655  -0.3542  -0.3462
 -0.3150  -0.3058  -0.2942  -0.2901  -0.2740  -0.2598  -0.2508  -0.2492
 -0.2409  -0.2301  -0.2192

          Ground-State Mulliken Net Atomic Charges

     Atom                 Charge (a.u.)
  ----------------------------------------
      1 C                    -0.333818
      2 C                    -0.110322
      3 C                     0.330206
      4 C                    -0.186085
      5 C                    -0.097993
      6 C                    -0.157833
      7 C                     0.256915
      8 C                     0.266994
      9 C                    -0.153494
     10 C                    -0.103355
     11 C                    -0.169981
     12 C                     0.259906
     13 C                     0.248431
     14 C                    -0.167696
     15 C                    -0.102163
     16 C                    -0.173562
     17 C                     0.308684
     18 C                    -0.091932
     19 C                    -0.347590
     20 N                    -0.532724
     21 N                    -0.537361
     22 N                    -0.582862
     23 H                     0.140515
     24 H                     0.164777
     25 H                     0.124462
     26 H                     0.133850
     27 H                     0.140000
     28 H                     0.179051
     29 H                     0.164328
     30 H                     0.139885
     31 H                     0.137937
     32 H                     0.138500
     33 H                     0.139901
     34 H                     0.135044
     35 H                     0.147989
     36 H                     0.141970
     37 H                     0.149425
  ----------------------------------------
  Sum of atomic charges =     0.000000

                    Cartesian Multipole Moments
 -----------------------------------------------------------------
    Charge (ESU x 10^10)
                 0.0000
    Dipole Moment (Debye)
         X      -1.3809      Y      -0.7657      Z      -0.4778
       Tot       1.6497
    Quadrupole Moments (Debye-Ang)
        XX    -103.5590     XY       6.1171     YY    -106.7163
        XZ       3.3652     YZ      -0.0881     ZZ    -129.7056

 Total job time:  87.19s(wall), 86.12s(cpu)
        *  Thank you very much for using Q-Chem.  Have a nice day.  *
