 Q-Chem 5.4, Q-Chem, Inc., Pleasanton, CA (2021)
 Q-Chem 5.4.2 for Intel X86 EM64T Linux

User input:
--------------------------------------------------------------
$molecule
0 1
C           -4.30448418130000       -0.56777721950000        0.97721624420000
C           -3.66832932400000        0.17547090650000        0.08167436040000
C           -2.21937740060000        0.19206950230000       -0.11036074440000
C           -1.46749730550000       -0.95780374070000        0.10759271710000
C           -0.09091100410000       -1.00083588210000       -0.05448537970000
C            0.62986908330000       -2.29656463630000        0.15710014220000
C            0.56207439150000        0.16998694990000       -0.45196627410000
C            2.00963475630000        0.27000443740000       -0.65225166890000
C            2.95403324450000       -0.15841731580000        0.16593696130000
F            2.79542264220000       -0.75883773280000        1.33962010110000
F            4.25908667240000       -0.01174539130000       -0.07118437100000
C           -0.19206244010000        1.31454461560000       -0.71141330150000
C           -1.56314377070000        1.35440062890000       -0.54365082300000
C           -2.31495761840000        2.62468870670000       -0.80632764010000
H           -5.37670634900000       -0.54317425690000        1.07230161870000
H           -3.78137706440000       -1.21366445620000        1.66237893270000
H           -4.23795469410000        0.83597470300000       -0.55843331740000
H           -1.98078648240000       -1.86403902010000        0.39388108790000
H           -0.03938546420000       -3.13317854220000       -0.03031158450000
H            0.98408460630000       -2.37339319240000        1.18455903530000
H            1.49019310320000       -2.38154582650000       -0.50355735170000
H            2.34926803250000        0.80187032530000       -1.52965400480000
H            0.32399486750000        2.20718492950000       -1.03709626520000
H           -1.62739218050000        3.43342328120000       -1.04087427910000
H           -2.90350197450000        2.91035683370000        0.06405812280000
H           -2.99610488690000        2.50118090720000       -1.64845370730000
$end

$rem
BASIS = 6-31G*
GUI = 2
METHOD = B3LYP
PRINT_ORBITALS false
MOLDEN_FORMAT false
$end
--------------------------------------------------------------

             Standard Nuclear Orientation (Angstroms)
    I     Atom           X                Y                Z
 ----------------------------------------------------------------
    1      C       4.0262962366    -1.5106537931    -0.5755404362
    2      C       3.5297038075    -0.4043663094    -0.0382974672
    3      C       2.1044190040    -0.1055043103     0.0876366651
    4      C       1.1853102878    -1.1307544151     0.2854680427
    5      C      -0.1780077725    -0.9082981946     0.4078935970
    6      C      -1.0878189638    -2.0695880495     0.6664566278
    7      C      -0.6402636221     0.4087131907     0.3241819929
    8      C      -2.0516097268     0.7869602579     0.4270414882
    9      C      -3.0690770111     0.2301044754    -0.2050489332
   10      F      -3.0303576278    -0.7778334150    -1.0686206623
   11      F      -4.3317068272     0.6438562585    -0.0806341482
   12      C       0.2813190321     1.4440892190     0.1669265877
   13      C       1.6385829118     1.2174260087     0.0402170139
   14      C       2.5765754408     2.3696994974    -0.1605086580
   15      H       5.0876367363    -1.6805899759    -0.6386668850
   16      H       3.3964269649    -2.2797151679    -0.9903519482
   17      H       4.2066101883     0.3546282816     0.3307569041
   18      H       1.5514130920    -2.1433999385     0.3703619330
   19      H      -0.5454444063    -2.8661830094     1.1706529600
   20      H      -1.4749089991    -2.4678019739    -0.2708960357
   21      H      -1.9345671405    -1.7771383229     1.2839825211
   22      H      -2.2868105117     1.6490714109     1.0349163887
   23      H      -0.0885563545     2.4592257843     0.1235535586
   24      H       2.0224447612     3.2993409247    -0.2630560897
   25      H       3.1791507756     2.2237702382    -1.0555895098
   26      H       3.2526072442     2.4676206945     0.6890703735
 ----------------------------------------------------------------

    9    -664.1441201343      6.51e-06  Convergence criterion met
 Total energy in the final basis set =     -664.1441201343

                    Orbital Energies (a.u.)
 --------------------------------------------------------------

 Alpha MOs
 -- Occupied --
-24.7388 -24.7308 -10.3532 -10.1987 -10.1975 -10.1914 -10.1910 -10.1888
-10.1883 -10.1819 -10.1808 -10.1794 -10.1794 -10.1749  -1.2806  -1.2200
 -0.8714  -0.8181  -0.7827  -0.7766  -0.7255  -0.7166  -0.6567  -0.6437
 -0.6150  -0.5854  -0.5706  -0.5505  -0.5179  -0.5117  -0.4916  -0.4692
 -0.4543  -0.4408  -0.4384  -0.4328  -0.4301  -0.4205  -0.4093  -0.4072
 -0.4008  -0.3938  -0.3733  -0.3724  -0.3480  -0.3380  -0.3316  -0.2982
 -0.2625  -0.2372  -0.2130

          Ground-State Mulliken Net Atomic Charges

     Atom                 Charge (a.u.)
  ----------------------------------------
      1 C                    -0.338215
      2 C                    -0.130372
      3 C                     0.121616
      4 C                    -0.258760
      5 C                     0.143437
      6 C                    -0.536884
      7 C                     0.128936
      8 C                    -0.345249
      9 C                     0.565497
     10 F                    -0.234562
     11 F                    -0.250246
     12 C                    -0.251207
     13 C                     0.127920
     14 C                    -0.535940
     15 H                     0.141819
     16 H                     0.144819
     17 H                     0.131243
     18 H                     0.122355
     19 H                     0.153923
     20 H                     0.171639
     21 H                     0.155616
     22 H                     0.167343
     23 H                     0.119191
     24 H                     0.156275
     25 H                     0.167502
     26 H                     0.162301
  ----------------------------------------
  Sum of atomic charges =     0.000000

                    Cartesian Multipole Moments
 -----------------------------------------------------------------
    Charge (ESU x 10^10)
                 0.0000
    Dipole Moment (Debye)
         X       1.0763      Y       0.4988      Z       0.4462
       Tot       1.2674
    Quadrupole Moments (Debye-Ang)
        XX     -80.3785     XY       0.2259     YY     -74.6719
        XZ      -1.6643     YZ       0.7968     ZZ     -82.5581

 Total job time:  70.50s(wall), 62.69s(cpu)
        *  Thank you very much for using Q-Chem.  Have a nice day.  *
