 Q-Chem 5.2, Q-Chem, Inc., Pleasanton, CA (2019)
 Q-Chem 5.2.1 for Intel X86 EM64T Linux

User input:
--------------------------------------------------------------
$molecule
0 1
C        -2.90566284330000    2.63616249370000   -0.25797191310000
C        -2.66755407540000    1.42191132090000    0.21823392520000
C        -1.39379728780000    0.71330913440000    0.08038041970000
C        -0.21263933330000    1.41216598050000    0.15168550070000
C         1.00114874380000    0.71615655630000    0.07268793530000
N         2.23730121560000    1.21507153120000    0.12343316510000
S         3.28343500610000   -0.00021726030000   -0.00068456980000
N         2.23689244260000   -1.21523020190000   -0.12374735090000
C         1.00088862580000   -0.71601054480000   -0.07175635770000
C        -0.21304141630000   -1.41180006950000   -0.14997618670000
C        -1.39412962710000   -0.71281678330000   -0.07766959490000
C        -2.66834442660000   -1.42033726820000   -0.21552875690000
C        -2.90554677330000   -2.63791885190000    0.25271303890000
H        -3.85600488580000    3.12209087240000   -0.11788735710000
H        -2.16750404930000    3.18273223620000   -0.82090724920000
H        -3.44471969060000    0.89069765820000    0.75244597830000
H        -0.20208559720000    2.48068437940000    0.29481135270000
H        -0.20253296790000   -2.48023713880000   -0.29358968080000
H        -3.44728793020000   -0.88512719040000   -0.74308182480000
H        -2.16592721710000   -3.18934765290000    0.80891350280000
H        -3.85665835070000   -3.12217263600000    0.11209328520000
$end

$rem
BASIS = 6-31G*
GUI = 2
METHOD = B3LYP
PRINT_ORBITALS false
MOLDEN_FORMAT false
--------------------------------------------------------------

             Standard Nuclear Orientation (Angstroms)
    I     Atom           X                Y                Z
 ----------------------------------------------------------------
    1      C      -2.8073135064    -2.6379480085     0.2387537823
    2      C      -2.5691879403    -1.4202755207    -0.2286257460
    3      C      -1.2954286409    -0.7127011591    -0.0856125583
    4      C      -0.1142742979    -1.4110306475    -0.1619654425
    5      C       1.0995172355    -0.7156212815    -0.0778990572
    6      N       2.3356671262    -1.2141637160    -0.1322410550
    7      S       3.3818071942     0.0001851829     0.0007088468
    8      N       2.3352709252     1.2142807169     0.1325652290
    9      C       1.0992645475     0.7154601584     0.0769320622
   10      C      -0.1146620258     1.4106724705     0.1601766853
   11      C      -1.2957538309     0.7122405449     0.0827800934
   12      C      -2.5699661258     1.4187512413     0.2257465360
   13      C      -2.8071517908     2.6396996387    -0.2336533080
   14      H      -3.7576564725    -3.1228405272     0.0951307970
   15      H      -2.0691683869    -3.1885927927     0.7977217469
   16      H      -3.3463404915    -0.8851945284    -0.7589832768
   17      H      -0.1037254851    -2.4784825946    -0.3128396381
   18      H      -0.1041486632     2.4780394029     0.3115382885
   19      H      -3.3489226042     0.8797332742     0.7493890522
   20      H      -2.0675186446     3.1951440227    -0.7858254840
   21      H      -3.7582624652     3.1229271932    -0.0895405371
 ----------------------------------------------------------------

    9    -893.5064474212      7.22e-06  Convergence criterion met
 Total energy in the final basis set =     -893.5064474212

                    Orbital Energies (a.u.)
 --------------------------------------------------------------

 Alpha MOs
 -- Occupied --
-88.9701 -14.3581 -14.3581 -10.2346 -10.2341 -10.2138 -10.2134 -10.2014
-10.2014 -10.2005 -10.2004 -10.1918 -10.1918  -8.0264  -5.9916  -5.9858
 -5.9841  -1.0249  -0.8865  -0.8779  -0.8036  -0.8026  -0.7406  -0.7389
 -0.6676  -0.6296  -0.5995  -0.5738  -0.5723  -0.5147  -0.5052  -0.4787
 -0.4595  -0.4542  -0.4532  -0.4425  -0.4203  -0.3955  -0.3873  -0.3703
 -0.3701  -0.3520  -0.3314  -0.3146  -0.2963  -0.2956  -0.2882  -0.2395
 -0.2299

          Ground-State Mulliken Net Atomic Charges

     Atom                 Charge (a.u.)
  ----------------------------------------
      1 C                    -0.331782
      2 C                    -0.138227
      3 C                     0.094405
      4 C                    -0.208126
      5 C                     0.255008
      6 N                    -0.564191
      7 S                     0.579396
      8 N                    -0.564075
      9 C                     0.254966
     10 C                    -0.208280
     11 C                     0.095067
     12 C                    -0.137927
     13 C                    -0.331971
     14 H                     0.149476
     15 H                     0.152193
     16 H                     0.149331
     17 H                     0.151964
     18 H                     0.151914
     19 H                     0.149228
     20 H                     0.152146
     21 H                     0.149484
  ----------------------------------------
  Sum of atomic charges =     0.000000

                    Cartesian Multipole Moments
 -----------------------------------------------------------------
    Charge (ESU x 10^10)
                 0.0000
    Dipole Moment (Debye)
         X      -2.2701      Y       0.0003      Z       0.0001
       Tot       2.2701
    Quadrupole Moments (Debye-Ang)
        XX     -74.8014     XY       0.0105     YY     -79.2534
        XZ       0.0060     YZ      -1.6902     ZZ     -82.8805

 Total job time:  36.02s(wall), 35.90s(cpu)
        *  Thank you very much for using Q-Chem.  Have a nice day.  *
