 Q-Chem 5.2, Q-Chem, Inc., Pleasanton, CA (2019)
 Q-Chem 5.2.1 for Intel X86 EM64T Linux

User input:
--------------------------------------------------------------
$molecule
0 1
C         3.08372873910000   -1.09418742230000    0.40037663010000
C         2.51319010340000   -0.18174363020000   -0.37332162580000
C         1.16771226110000    0.38165451760000   -0.18165978440000
C         1.04855714440000    1.76426111200000   -0.12721765340000
C        -0.16959011580000    2.36563691370000    0.13101598070000
C        -1.28812858290000    1.57525127010000    0.30348812590000
C        -1.22480197670000    0.18969413820000    0.17898040950000
C        -2.47464988370000   -0.55901723250000    0.31553309930000
C        -2.84397242130000   -1.62467370410000   -0.38492576920000
C         0.02163689950000   -0.42502389060000   -0.05176899870000
N         0.11157100560000   -1.78921991610000   -0.21279092440000
H         4.08895104450000   -1.43866465810000    0.22387512710000
H         2.58658324130000   -1.51139519380000    1.26241619210000
H         3.07912035760000    0.25138604540000   -1.19002784520000
H         1.93559981050000    2.36882003500000   -0.25351410040000
H        -0.24349504140000    3.44024692370000    0.20051661210000
H        -2.24537483720000    2.03363906370000    0.50846101870000
H        -3.16848307940000   -0.14022500560000    1.03653024920000
H        -2.23326040780000   -2.04173909800000   -1.16733989510000
H        -3.80338052180000   -2.09001816910000   -0.22902695840000
H        -0.60628657160000   -2.33742695620000    0.23316818040000
H         1.04151909560000   -2.17334571230000   -0.17642462000000
$end

$rem
BASIS = 6-31G*
GUI = 2
METHOD = B3LYP
PRINT_ORBITALS false
MOLDEN_FORMAT false
--------------------------------------------------------------

             Standard Nuclear Orientation (Angstroms)
    I     Atom           X                Y                Z
 ----------------------------------------------------------------
    1      C      -2.9661283418     1.3228768760     0.4994760817
    2      C      -2.4894294742     0.4044694711    -0.3287527683
    3      C      -1.1989192517    -0.2876042041    -0.1870497265
    4      C      -1.2056822949    -1.6762642719    -0.2054985717
    5      C      -0.0447139036    -2.3980867446     0.0026958674
    6      C       1.1429804684    -1.7222674951     0.1982331515
    7      C       1.2048554621    -0.3320427210     0.1460071133
    8      C       2.5191230639     0.2923404445     0.3015110605
    9      C       2.9765046593     1.3555366918    -0.3489359355
   10      C       0.0172248647     0.4041642272    -0.0336211418
   11      N       0.0502671282     1.7774695640    -0.1229948544
   12      H      -3.9376066269     1.7656578868     0.3564231266
   13      H      -2.4238329808     1.6475521540     1.3740216107
   14      H      -3.1011851814     0.0678001830    -1.1577860381
   15      H      -2.1454286672    -2.1906402622    -0.3489596182
   16      H      -0.0683070619    -3.4771376174     0.0157926695
   17      H       2.0566090567    -2.2754902129     0.3646094557
   18      H       3.1795813275    -0.2247812902     0.9892670613
   19      H       2.3980021959     1.8666485306    -1.0993919027
   20      H       3.9759412853     1.7233615221    -0.1841781181
   21      H       0.8198281560     2.2343159341     0.3393872405
   22      H      -0.8403629134     2.2416925805    -0.0526122895
 ----------------------------------------------------------------

    8    -442.3910612397      6.03e-06  Convergence criterion met
 Total energy in the final basis set =     -442.3910612397

                    Orbital Energies (a.u.)
 --------------------------------------------------------------

 Alpha MOs
 -- Occupied --
-14.3297 -10.2240 -10.1939 -10.1884 -10.1827 -10.1820 -10.1819 -10.1791
-10.1784 -10.1742 -10.1693  -0.9210  -0.8390  -0.8021  -0.7700  -0.7196
 -0.7142  -0.6195  -0.6154  -0.5662  -0.5636  -0.5063  -0.5013  -0.4835
 -0.4585  -0.4437  -0.4375  -0.4261  -0.4079  -0.3776  -0.3751  -0.3683
 -0.3478  -0.3299  -0.3028  -0.2947  -0.2720  -0.2217  -0.1895

          Ground-State Mulliken Net Atomic Charges

     Atom                 Charge (a.u.)
  ----------------------------------------
      1 C                    -0.346614
      2 C                    -0.146097
      3 C                     0.116683
      4 C                    -0.189794
      5 C                    -0.133921
      6 C                    -0.199215
      7 C                     0.134065
      8 C                    -0.145870
      9 C                    -0.363335
     10 C                     0.206960
     11 N                    -0.818280
     12 H                     0.144780
     13 H                     0.146401
     14 H                     0.142795
     15 H                     0.123075
     16 H                     0.119369
     17 H                     0.122748
     18 H                     0.133380
     19 H                     0.165622
     20 H                     0.139001
     21 H                     0.322755
     22 H                     0.325492
  ----------------------------------------
  Sum of atomic charges =     0.000000

                    Cartesian Multipole Moments
 -----------------------------------------------------------------
    Charge (ESU x 10^10)
                 0.0000
    Dipole Moment (Debye)
         X      -0.3647      Y       0.9910      Z       0.7116
       Tot       1.2733
    Quadrupole Moments (Debye-Ang)
        XX     -59.3156     XY      -0.7462     YY     -59.0606
        XZ       2.6660     YZ       1.7187     ZZ     -67.5023

 Total job time:  23.67s(wall), 22.80s(cpu)
        *  Thank you very much for using Q-Chem.  Have a nice day.  *
