 Q-Chem 5.2, Q-Chem, Inc., Pleasanton, CA (2019)
 Q-Chem 5.2.1 for Intel X86 EM64T Linux

User input:
--------------------------------------------------------------
$molecule
0 1
C         2.42970190480000    2.83871367680000    0.53374030390000
C         1.42035010800000    2.50274128150000   -0.25722216540000
C         0.69616899790000    1.23659554610000   -0.18519952640000
C        -0.67992342040000    1.22918564910000   -0.38463043160000
C        -1.44503267600000    0.07938865880000   -0.22904829010000
C        -2.90936540720000    0.25250145010000   -0.41976087610000
O        -3.39713792150000    1.11383573600000   -1.11014438080000
O        -3.64275335970000   -0.61512008710000    0.29004930500000
C        -5.05072557250000   -0.46936348560000    0.18312789230000
C        -0.83146959110000   -1.13373053750000    0.12242197240000
C        -1.57044671650000   -2.38747867560000    0.25285688300000
C        -1.28212160280000   -3.32712268580000    1.14276563910000
C         0.55209173180000   -1.13054189780000    0.29055720150000
C         1.31170171480000    0.01768646180000    0.13201503630000
C         2.79166569870000   -0.12699098230000    0.24402945850000
O         3.36172567960000   -0.67267268280000    1.15411486130000
O         3.40852179900000    0.36149985290000   -0.83909094280000
C         4.82528802770000    0.27307127410000   -0.85239199750000
H         2.90934507430000    3.79974200830000    0.46004019290000
H         2.80323633460000    2.17518394590000    1.29688260270000
H         1.03404959330000    3.21386528790000   -0.97575600900000
H        -1.18937482710000    2.14484728090000   -0.64834668300000
H        -5.48376177220000   -1.22649332740000    0.83140920380000
H        -5.37119701250000   -0.61707264730000   -0.85040719840000
H        -5.35379937330000    0.52988061500000    0.50258038640000
H        -2.39764388230000   -2.52632499920000   -0.42870373390000
H        -0.49178099250000   -3.20685307440000    1.86476311690000
H        -1.84520516740000   -4.24270497950000    1.19814773960000
H         1.05825211450000   -2.05577185800000    0.52191371080000
H         5.13447387680000    0.45692821630000   -1.87808973380000
H         5.14749009770000   -0.71641287440000   -0.52151312150000
H         5.25308328840000    1.02617936420000   -0.18689368460000
$end

$rem
BASIS = 6-31G*
GUI = 2
METHOD = B3LYP
PRINT_ORBITALS false
MOLDEN_FORMAT false
--------------------------------------------------------------

             Standard Nuclear Orientation (Angstroms)
    I     Atom           X                Y                Z
 ----------------------------------------------------------------
    1      C       2.9083041323     2.1287831013     1.1209555964
    2      C       1.8651981278     2.1882229084     0.3050592178
    3      C       0.9150971300     1.0996068844     0.0929889218
    4      C      -0.4348981220     1.3964403757    -0.0582084132
    5      C      -1.4045291200     0.4059304437    -0.1598789454
    6      C      -2.8073954579     0.8889208757    -0.2562944897
    7      O      -3.1147692280     1.9671607992    -0.7028011460
    8      O      -3.7007716204     0.0267077167     0.2466200303
    9      C      -5.0546216068     0.4528524290     0.2230865230
   10      C      -1.0348684850    -0.9483816838    -0.1309157733
   11      C      -1.9980049955    -2.0366207946    -0.2828649474
   12      C      -1.9040654184    -3.2008135989     0.3446940549
   13      C       0.3221154727    -1.2430267585    -0.0113315957
   14      C       1.2860932318    -0.2522711046     0.0872656885
   15      C       2.7107757994    -0.6919905908     0.1136956386
   16      O       3.1551275995    -1.5382666064     0.8467445617
   17      O       3.4238095635    -0.0785495790    -0.8389624976
   18      C       4.7987813570    -0.4225662897    -0.9185121567
   19      H       3.5609503334     2.9726829602     1.2656991451
   20      H       3.1396074105     1.2424417037     1.6893599970
   21      H       1.6296620148     3.1114275415    -0.2081973158
   22      H      -0.7594447892     2.4268952579    -0.0770609320
   23      H      -5.6313895976    -0.3449869778     0.6833316449
   24      H      -5.3823549867     0.6225156258    -0.8047850426
   25      H      -5.1691060233     1.3830578425     0.7834467682
   26      H      -2.8267469958    -1.8498506215    -0.9509681779
   27      H      -1.1155868099    -3.4082418848     1.0487241735
   28      H      -2.6298587580    -3.9815035727     0.1958034667
   29      H       0.6420942793    -2.2741286119    -0.0260685505
   30      H       5.1516061134    -0.0560013723    -1.8790328297
   31      H       4.9246051636    -1.5048457843    -0.8463086261
   32      H       5.3508998563     0.0536020664    -0.1051872251
 ----------------------------------------------------------------

    9    -842.7828031916      7.64e-06  Convergence criterion met
 Total energy in the final basis set =     -842.7828031916

                    Orbital Energies (a.u.)
 --------------------------------------------------------------

 Alpha MOs
 -- Occupied --
-19.1977 -19.1923 -19.1375 -19.1363 -10.3174 -10.3170 -10.2428 -10.2394
-10.2127 -10.2122 -10.2111 -10.2106 -10.2012 -10.2007 -10.1966 -10.1942
-10.1864 -10.1835  -1.1144  -1.1109  -1.0208  -1.0207  -0.8861  -0.8237
 -0.7893  -0.7762  -0.7465  -0.7324  -0.7177  -0.6567  -0.6365  -0.5967
 -0.5874  -0.5685  -0.5592  -0.5276  -0.5220  -0.4970  -0.4886  -0.4832
 -0.4742  -0.4726  -0.4643  -0.4517  -0.4438  -0.4340  -0.4316  -0.4210
 -0.4067  -0.4003  -0.3987  -0.3820  -0.3738  -0.3653  -0.3589  -0.3541
 -0.3454  -0.3136  -0.3057  -0.3005  -0.2863  -0.2777  -0.2701  -0.2583
 -0.2273

          Ground-State Mulliken Net Atomic Charges

     Atom                 Charge (a.u.)
  ----------------------------------------
      1 C                    -0.348504
      2 C                    -0.114336
      3 C                     0.143787
      4 C                    -0.246786
      5 C                     0.045135
      6 C                     0.547286
      7 O                    -0.481614
      8 O                    -0.443299
      9 C                    -0.220463
     10 C                     0.116942
     11 C                    -0.097220
     12 C                    -0.342323
     13 C                    -0.237462
     14 C                     0.071299
     15 C                     0.499587
     16 O                    -0.478591
     17 O                    -0.419502
     18 C                    -0.222419
     19 H                     0.148311
     20 H                     0.163184
     21 H                     0.142749
     22 H                     0.162926
     23 H                     0.167642
     24 H                     0.169485
     25 H                     0.172565
     26 H                     0.142729
     27 H                     0.152280
     28 H                     0.145340
     29 H                     0.156526
     30 H                     0.166914
     31 H                     0.175679
     32 H                     0.162153
  ----------------------------------------
  Sum of atomic charges =     0.000000

                    Cartesian Multipole Moments
 -----------------------------------------------------------------
    Charge (ESU x 10^10)
                 0.0000
    Dipole Moment (Debye)
         X      -0.2377      Y      -0.2154      Z      -0.5124
       Tot       0.6045
    Quadrupole Moments (Debye-Ang)
        XX     -82.7163     XY      10.6748     YY    -103.5866
        XZ      -6.4046     YZ       5.2059     ZZ    -105.6882

 Total job time:  65.19s(wall), 65.00s(cpu)
        *  Thank you very much for using Q-Chem.  Have a nice day.  *
