 Q-Chem 5.2, Q-Chem, Inc., Pleasanton, CA (2019)
 Q-Chem 5.2.1 for Intel X86 EM64T Linux

User input:
--------------------------------------------------------------
$molecule
0 1
C         1.06745184360000    3.22051106660000    2.64586392570000
C         0.73750357910000    3.06569368820000    1.36564631060000
C         1.38568153720000    2.17520345700000    0.44128186850000
C         2.44483814640000    1.32364601370000    0.62889346020000
C         2.79383309860000    0.57530583590000   -0.51070846130000
C         3.88292157210000   -0.45443411810000   -0.51311305670000
C         3.39249414030000   -1.89609906130000   -0.72849466260000
C         2.74426403050000   -2.55269412080000    0.49262261550000
C         1.46660708060000   -1.88838806880000    1.00754600980000
C         0.34032443230000   -1.81937691030000   -0.02056909560000
C        -0.83617187200000   -0.99276004440000    0.49396008840000
C        -1.88850002570000   -0.76973195870000   -0.58952749990000
C        -2.93276703900000    0.28116033330000   -0.21086176950000
C        -3.74347768700000   -0.03722879860000    1.04597164750000
C        -4.57003235510000   -1.31554464790000    0.92877185680000
C        -5.47233837410000   -1.52233072270000    2.14312828730000
C        -6.28645935480000   -2.80582074700000    2.03421324080000
C         2.00265681990000    0.87977551950000   -1.59992480420000
C         2.09349760470000    0.35570967110000   -2.93538671420000
C         1.18916779020000    0.55161868390000   -3.89168144840000
S         0.80145804180000    2.06924441310000   -1.19048600550000
H         0.53575656050000    3.90668637420000    3.28081635560000
H         1.87523127200000    2.67373179880000    3.10050723090000
H        -0.08361305330000    3.63566288770000    0.94975353090000
H         2.96681088050000    1.23758217040000    1.56606646290000
H         4.42303958960000   -0.39980768030000    0.43421143810000
H         4.59115150910000   -0.21433787410000   -1.31220963620000
H         4.25923965980000   -2.50390275670000   -1.00283081010000
H         2.69851068590000   -1.92450902610000   -1.56835613840000
H         3.47297856340000   -2.57257966260000    1.30774990440000
H         2.51949628430000   -3.59039000420000    0.23068365190000
H         1.69572840830000   -0.87796367040000    1.34555002190000
H         1.11718535050000   -2.44924176350000    1.87874473710000
H         0.00458096450000   -2.82856069720000   -0.27120476430000
H         0.70689880340000   -1.35650748340000   -0.93734785280000
H        -0.46503805200000   -0.02165658670000    0.83141029800000
H        -1.28173180060000   -1.49401762890000    1.35483959860000
H        -2.37790610100000   -1.71571503920000   -0.82731933320000
H        -1.38433633390000   -0.42810219970000   -1.49771978330000
H        -3.62099932210000    0.40471679700000   -1.05110532700000
H        -2.42233453370000    1.23610864270000   -0.06085513160000
H        -4.41978260840000    0.80069201880000    1.23610401550000
H        -3.07466717050000   -0.11417942110000    1.90499073800000
H        -3.90661504600000   -2.17662512480000    0.83201099380000
H        -5.18543174200000   -1.26592805960000    0.02701253470000
H        -6.14996684260000   -0.67062763900000    2.23942806110000
H        -4.85789321060000   -1.55797021240000    3.04601230550000
H        -6.91847018470000   -2.78213359880000    1.14889481040000
H        -6.92315038500000   -2.93251539030000    2.90692386470000
H        -5.62903422300000   -3.66969037940000    1.96090784260000
H         2.97935875800000   -0.23099925430000   -3.14160288460000
H         0.29579026030000    1.12696736830000   -3.71139575870000
H         1.31225316650000    0.14377509730000   -4.87921467870000
$end

$rem
BASIS = 6-31G*
GUI = 2
METHOD = B3LYP
PRINT_ORBITALS false
MOLDEN_FORMAT false
--------------------------------------------------------------

             Standard Nuclear Orientation (Angstroms)
    I     Atom           X                Y                Z
 ----------------------------------------------------------------
    1      C      -1.1111767261     3.4895825140    -2.3475618050
    2      C      -1.1257851908     3.1366340229    -1.0642047326
    3      C      -1.7742901681     1.9699461123    -0.5295667684
    4      C      -2.5029162109     0.9950612447    -1.1627053756
    5      C      -2.9674979172    -0.0243785212    -0.3109956600
    6      C      -3.7345440483    -1.2153314717    -0.8006436566
    7      C      -2.9941476676    -2.5543942643    -0.6456270526
    8      C      -1.8925980911    -2.8125521054    -1.6763500095
    9      C      -0.7193698799    -1.8316978849    -1.6585602200
   10      C       0.0234794098    -1.7703065705    -0.3263808578
   11      C       1.0637323661    -0.6522835220    -0.3175758419
   12      C       1.6854934652    -0.4680533158     1.0646519942
   13      C       2.5111436998     0.8128726500     1.1902955375
   14      C       3.6928925096     0.9170451551     0.2254787301
   15      C       4.7342349164    -0.1826646189     0.4185181711
   16      C       5.9625688512     0.0368478605    -0.4615887480
   17      C       6.9959074199    -1.0684135194    -0.2810041818
   18      C      -2.6096225829     0.1886714387     1.0049028518
   19      C      -2.9426397720    -0.6081864911     2.1540210208
   20      C      -2.4163894333    -0.4510025146     3.3660631619
   21      S      -1.6625831106     1.6380908704     1.1711990703
   22      H      -0.6031409547     4.3785232551    -2.6767806210
   23      H      -1.6042008973     2.9092425443    -3.1080277107
   24      H      -0.6150572173     3.7497424430    -0.3325496097
   25      H      -2.7052840015     1.0100712283    -2.2195770495
   26      H      -3.9845807700    -1.0664063039    -1.8529925299
   27      H      -4.6741456462    -1.2809874248    -0.2433023550
   28      H      -3.7314839469    -3.3552376318    -0.7501189737
   29      H      -2.5772370213    -2.6274552885     0.3586811965
   30      H      -2.3371768894    -2.7974275517    -2.6753363669
   31      H      -1.5088274182    -3.8222250163    -1.5053939023
   32      H      -1.0793729735    -0.8332749975    -1.9060481397
   33      H      -0.0164933561    -2.1255410534    -2.4429455969
   34      H       0.5067778492    -2.7297482617    -0.1266608288
   35      H      -0.6846764093    -1.5832076270     0.4814665824
   36      H       0.5809385582     0.2820175767    -0.6153114257
   37      H       1.8388556319    -0.8732513789    -1.0532751529
   38      H       2.3001452238    -1.3357340804     1.3101729860
   39      H       0.8808056364    -0.4210671446     1.8035531661
   40      H       2.8862638665     0.8846676301     2.2145364528
   41      H       1.8502231147     1.6671009248     1.0216312489
   42      H       4.1745689226     1.8863513133     0.3806668903
   43      H       3.3299423766     0.8975014778    -0.8036121059
   44      H       4.2962180704    -1.1525014504     0.1766451856
   45      H       5.0420960540    -0.2080989684     1.4668133108
   46      H       6.4159117935     1.0002050206    -0.2160784851
   47      H       5.6525677453     0.0761195050    -1.5086654571
   48      H       7.3300158015    -1.1122854020     0.7535171281
   49      H       7.8624881913    -0.8917771330    -0.9141614982
   50      H       6.5706951727    -2.0349651188    -0.5433489503
   51      H      -3.6837226139    -1.3781855896     1.9825565501
   52      H      -1.6728611297     0.3041002186     3.5626286054
   53      H      -2.7097726928    -1.0700968309     4.1951329855
 ----------------------------------------------------------------

    9   -1179.5554539028      3.20e-06  Convergence criterion met
 Total energy in the final basis set =    -1179.5554539028

                    Orbital Energies (a.u.)
 --------------------------------------------------------------

 Alpha MOs
 -- Occupied --
-88.9024 -10.2180 -10.2129 -10.1995 -10.1978 -10.1951 -10.1895 -10.1863
-10.1837 -10.1817 -10.1786 -10.1721 -10.1691 -10.1656 -10.1640 -10.1632
-10.1631 -10.1630 -10.1607 -10.1603 -10.1600  -7.9639  -5.9280  -5.9243
 -5.9208  -0.8918  -0.8159  -0.8065  -0.8004  -0.7831  -0.7724  -0.7584
 -0.7366  -0.7141  -0.7006  -0.6795  -0.6481  -0.6254  -0.6205  -0.5924
 -0.5806  -0.5751  -0.5514  -0.5411  -0.5362  -0.5256  -0.4904  -0.4763
 -0.4689  -0.4611  -0.4581  -0.4490  -0.4454  -0.4319  -0.4263  -0.4148
 -0.4140  -0.4074  -0.4003  -0.3942  -0.3895  -0.3820  -0.3776  -0.3727
 -0.3658  -0.3636  -0.3581  -0.3511  -0.3469  -0.3423  -0.3351  -0.3309
 -0.3269  -0.3242  -0.3187  -0.3157  -0.3107  -0.3055  -0.2996  -0.2932
 -0.2854  -0.2694  -0.2433  -0.1970

          Ground-State Mulliken Net Atomic Charges

     Atom                 Charge (a.u.)
  ----------------------------------------
      1 C                    -0.340575
      2 C                    -0.089402
      3 C                    -0.121898
      4 C                    -0.178002
      5 C                     0.174269
      6 C                    -0.346215
      7 C                    -0.264276
      8 C                    -0.255784
      9 C                    -0.263581
     10 C                    -0.263654
     11 C                    -0.263428
     12 C                    -0.257122
     13 C                    -0.260724
     14 C                    -0.255800
     15 C                    -0.247205
     16 C                    -0.247918
     17 C                    -0.441020
     18 C                    -0.211397
     19 C                    -0.059420
     20 C                    -0.376158
     21 S                     0.233047
     22 H                     0.147946
     23 H                     0.142913
     24 H                     0.138167
     25 H                     0.135912
     26 H                     0.142395
     27 H                     0.149752
     28 H                     0.129676
     29 H                     0.148966
     30 H                     0.122186
     31 H                     0.127983
     32 H                     0.142206
     33 H                     0.122782
     34 H                     0.120803
     35 H                     0.149072
     36 H                     0.143820
     37 H                     0.126208
     38 H                     0.127546
     39 H                     0.132596
     40 H                     0.120401
     41 H                     0.127152
     42 H                     0.122716
     43 H                     0.133806
     44 H                     0.132232
     45 H                     0.124876
     46 H                     0.128807
     47 H                     0.129102
     48 H                     0.140774
     49 H                     0.139445
     50 H                     0.140481
     51 H                     0.141850
     52 H                     0.157296
     53 H                     0.146394
  ----------------------------------------
  Sum of atomic charges =     0.000000

                    Cartesian Multipole Moments
 -----------------------------------------------------------------
    Charge (ESU x 10^10)
                -0.0000
    Dipole Moment (Debye)
         X      -0.8138      Y      -0.4073      Z      -0.6552
       Tot       1.1213
    Quadrupole Moments (Debye-Ang)
        XX    -139.7829     XY       5.8929     YY    -137.6324
        XZ       2.1435     YZ      -2.5370     ZZ    -135.0456

 Total job time:  149.84s(wall), 149.09s(cpu)
        *  Thank you very much for using Q-Chem.  Have a nice day.  *
