 Q-Chem 5.2, Q-Chem, Inc., Pleasanton, CA (2019)
 Q-Chem 5.2.1 for Intel X86 EM64T Linux

User input:
--------------------------------------------------------------
$molecule
0 1
C         4.12225914560000    0.69296927640000   -0.00157533650000
C         3.07258723380000   -0.12312411270000    0.00051506190000
C         1.67782692840000    0.27515402800000    0.00065946150000
C         1.22294654140000    1.57697550680000    0.00079624320000
C        -0.14200133390000    1.87664356500000    0.00046641440000
F        -0.45952289960000    3.19110444960000    0.00029356410000
C        -1.16879395340000    0.94707845170000   -0.00010170600000
C        -2.55597687360000    1.36673320360000   -0.00117700500000
C        -3.60797391530000    0.55357306600000    0.00012285950000
C        -0.72968684980000   -0.40324236760000    0.00002506170000
N        -1.48601457140000   -1.50069541230000   -0.00028159780000
S        -0.53483363380000   -2.79600920000000   -0.00010919900000
N         0.88259406750000   -2.04473943060000    0.00026984400000
C         0.67468166730000   -0.72887803240000    0.00041850960000
H         5.12659531430000    0.30682284960000   -0.00129239170000
H         4.02824542420000    1.76551667360000   -0.00349839270000
H         3.21905401290000   -1.19472599820000    0.00175332620000
H         1.91224221650000    2.40594545670000    0.00106512390000
H        -2.69997375900000    2.43950478740000   -0.00337013780000
H        -3.49264647530000   -0.51570664820000    0.00229263320000
H        -4.61078185260000    0.94509318770000   -0.00062921140000
$end

$rem
BASIS = 6-31G*
GUI = 2
METHOD = B3LYP
PRINT_ORBITALS false
MOLDEN_FORMAT false
--------------------------------------------------------------

             Standard Nuclear Orientation (Angstroms)
    I     Atom           X                Y                Z
 ----------------------------------------------------------------
    1      C       4.1092028049    -0.6448363184     0.0014993466
    2      C       3.0528534413     0.1625952211    -0.0005605102
    3      C       1.6614164398    -0.2471423276    -0.0007009169
    4      C       1.2172598393    -1.5526614715    -0.0008653174
    5      C      -0.1451768734    -1.8635470573    -0.0005293577
    6      F      -0.4518753285    -3.1805753139    -0.0003857993
    7      C      -1.1795810766    -0.9424594996     0.0000718779
    8      C      -2.5632650993    -1.3735106370     0.0011505671
    9      C      -3.6219153780    -0.5690313950    -0.0001188052
   10      C      -0.7515961697     0.4114276040    -0.0000259178
   11      N      -1.5169256245     1.5026221839     0.0003153197
   12      S      -0.5764317369     2.8057162861     0.0001654610
   13      N       0.8471277295     2.0661312843    -0.0002461682
   14      C       0.6500462485     0.7486041820    -0.0004252465
   15      H       5.1103286660    -0.2504415762     0.0012159786
   16      H       4.0240147412    -1.7181208056     0.0033968660
   17      H       3.1905005725     1.2353656751    -0.0017737808
   18      H       1.9133510532    -2.3759334265    -0.0011614862
   19      H      -2.6984327891    -2.4474304565     0.0033186529
   20      H      -3.5153874404     0.5011608462    -0.0022633339
   21      H      -4.6214688523    -0.9687870910     0.0006335413
 ----------------------------------------------------------------

    9    -992.7471470506      9.41e-06  Convergence criterion met
 Total energy in the final basis set =     -992.7471470506

                    Orbital Energies (a.u.)
 --------------------------------------------------------------

 Alpha MOs
 -- Occupied --
-88.9790 -24.7185 -14.3692 -14.3655 -10.2881 -10.2467 -10.2444 -10.2218
-10.2160 -10.2121 -10.2003 -10.1937 -10.1930 -10.1779  -8.0351  -6.0004
 -5.9945  -5.9927  -1.2296  -1.0355  -0.8991  -0.8815  -0.8164  -0.7778
 -0.7741  -0.7303  -0.6726  -0.6355  -0.6189  -0.5922  -0.5507  -0.5407
 -0.5309  -0.5108  -0.4772  -0.4702  -0.4572  -0.4571  -0.4445  -0.4267
 -0.4187  -0.3921  -0.3834  -0.3729  -0.3706  -0.3692  -0.3541  -0.3186
 -0.2998  -0.2936  -0.2777  -0.2666  -0.2139

          Ground-State Mulliken Net Atomic Charges

     Atom                 Charge (a.u.)
  ----------------------------------------
      1 C                    -0.344325
      2 C                    -0.107025
      3 C                     0.206765
      4 C                    -0.306295
      5 C                     0.311241
      6 F                    -0.290188
      7 C                     0.105642
      8 C                    -0.108708
      9 C                    -0.354732
     10 C                     0.193705
     11 N                    -0.581718
     12 S                     0.586348
     13 N                    -0.562582
     14 C                     0.160616
     15 H                     0.154895
     16 H                     0.147262
     17 H                     0.165919
     18 H                     0.151364
     19 H                     0.141143
     20 H                     0.188538
     21 H                     0.142133
  ----------------------------------------
  Sum of atomic charges =     0.000000

                    Cartesian Multipole Moments
 -----------------------------------------------------------------
    Charge (ESU x 10^10)
                -0.0000
    Dipole Moment (Debye)
         X       0.9840      Y      -0.0593      Z       0.0001
       Tot       0.9858
    Quadrupole Moments (Debye-Ang)
        XX     -79.6492     XY      -3.0483     YY     -82.9072
        XZ       0.0017     YZ      -0.0088     ZZ     -87.8067

 Total job time:  36.73s(wall), 36.48s(cpu)
        *  Thank you very much for using Q-Chem.  Have a nice day.  *
