 Q-Chem 5.2, Q-Chem, Inc., Pleasanton, CA (2019)
 Q-Chem 5.2.1 for Intel X86 EM64T Linux

User input:
--------------------------------------------------------------
$molecule
0 1
C         2.33525009450000   -3.26976182180000   -0.33900295160000
C         1.07827840700000   -2.85345434970000   -0.23546026560000
C         0.59028902520000   -1.48591319160000   -0.10821632180000
C        -0.78276311700000   -1.26353067700000   -0.16079380200000
C        -1.34440952760000    0.00029128930000   -0.04377796340000
C        -2.83062885990000    0.07625582720000   -0.05374595580000
O        -3.52708945160000   -0.66130722270000   -0.69420564130000
O        -3.38169406110000    1.02038097380000    0.74135504590000
C        -0.51517401070000    1.12791034430000    0.07541408880000
N        -1.03991921790000    2.40878067800000    0.12555449260000
C         0.87704647480000    0.93905393390000    0.16483771290000
C         1.76290653160000    2.09314732060000    0.37608613860000
C         2.90249323310000    2.30015151940000   -0.26590899410000
C         1.38722710440000   -0.35101212970000    0.07906171760000
F         2.72040124820000   -0.49331934600000    0.21298832120000
H         2.55541789570000   -4.31944683340000   -0.43622990930000
H         3.18322336350000   -2.60982242140000   -0.33393858120000
H         0.28182475640000   -3.58714225840000   -0.26065388360000
H        -1.45587873670000   -2.09786056090000   -0.28862558360000
H        -2.71866885900000    1.48372447440000    1.27309040430000
H        -1.91348158830000    2.54859905250000   -0.36080648580000
H        -0.37087150460000    3.14194357000000   -0.05416748210000
H         1.42801379140000    2.79995107730000    1.12680255950000
H         3.26354716150000    1.62572466450000   -1.02322523730000
H         3.51818678310000    3.15754192330000   -0.05468541650000
$end

$rem
BASIS = 6-31G*
GUI = 2
METHOD = B3LYP
PRINT_ORBITALS false
MOLDEN_FORMAT false
--------------------------------------------------------------

             Standard Nuclear Orientation (Angstroms)
    I     Atom           X                Y                Z
 ----------------------------------------------------------------
    1      C       3.1182292924     2.5510676313     0.0074999421
    2      C       1.7931197675     2.4823552639    -0.0505877501
    3      C       0.9520205965     1.2919843467    -0.0426668334
    4      C      -0.4280933236     1.4549382102     0.0362138700
    5      C      -1.3119295793     0.3848213776     0.0445082794
    6      C      -2.7629146070     0.7147406407     0.0671711324
    7      O      -3.2161990892     1.6690951690     0.6354895551
    8      O      -3.5707983047    -0.1146072339    -0.6304941062
    9      C      -0.8201479351    -0.9309928050     0.0323891917
   10      N      -1.6710517413    -2.0212358387     0.1087648704
   11      C       0.5683160590    -1.1346661632    -0.0799767678
   12      C       1.1047635705    -2.4996764226    -0.1813500487
   13      C       2.1653543164    -2.9467343814     0.4735948269
   14      C       1.4087277501    -0.0283762185    -0.1217259262
   15      F       2.7265128980    -0.2648125449    -0.2736507246
   16      H       3.6151712009     3.5064621871     0.0015377270
   17      H       3.7571228597     1.6889278264     0.0634846838
   18      H       1.2242437948     3.4031030352    -0.0938861646
   19      H      -0.8481293526     2.4482842140     0.0848493308
   20      H      -3.0727816011    -0.7870766572    -1.1171113553
   21      H      -2.5352021796    -1.8740608035     0.6095551691
   22      H      -1.2186069689    -2.8880774138     0.3564179919
   23      H       0.5700961646    -3.1559324663    -0.8586672659
   24      H       2.7167039238    -2.3279673054     1.1605302898
   25      H       2.5214319728    -3.9543712004     0.3444089316
 ----------------------------------------------------------------

    9    -730.1923020749      6.85e-06  Convergence criterion met
 Total energy in the final basis set =     -730.1923020749

                    Orbital Energies (a.u.)
 --------------------------------------------------------------

 Alpha MOs
 -- Occupied --
-24.7212 -19.1938 -19.1309 -14.3732 -10.3185 -10.2871 -10.2594 -10.2133
-10.2094 -10.2076 -10.2067 -10.2059 -10.1982 -10.1944 -10.1777  -1.2338
 -1.1032  -1.0202  -0.9567  -0.8727  -0.8187  -0.7927  -0.7543  -0.7321
 -0.6623  -0.6434  -0.6286  -0.6010  -0.5831  -0.5600  -0.5500  -0.5329
 -0.4957  -0.4869  -0.4749  -0.4707  -0.4561  -0.4495  -0.4443  -0.4393
 -0.4181  -0.4094  -0.3998  -0.3973  -0.3750  -0.3666  -0.3480  -0.3400
 -0.3180  -0.3068  -0.2849  -0.2695  -0.2468  -0.2147

          Ground-State Mulliken Net Atomic Charges

     Atom                 Charge (a.u.)
  ----------------------------------------
      1 C                    -0.361303
      2 C                    -0.109302
      3 C                     0.130919
      4 C                    -0.273222
      5 C                     0.048296
      6 C                     0.512820
      7 O                    -0.439855
      8 O                    -0.582031
      9 C                     0.200956
     10 N                    -0.840594
     11 C                     0.052154
     12 C                    -0.163080
     13 C                    -0.312260
     14 C                     0.244642
     15 F                    -0.278151
     16 H                     0.140774
     17 H                     0.156027
     18 H                     0.134588
     19 H                     0.169546
     20 H                     0.424360
     21 H                     0.347463
     22 H                     0.340570
     23 H                     0.147141
     24 H                     0.159989
     25 H                     0.149556
  ----------------------------------------
  Sum of atomic charges =     0.000000

                    Cartesian Multipole Moments
 -----------------------------------------------------------------
    Charge (ESU x 10^10)
                -0.0000
    Dipole Moment (Debye)
         X       1.8996      Y      -4.0480      Z      -0.2736
       Tot       4.4799
    Quadrupole Moments (Debye-Ang)
        XX     -97.2716     XY      10.3436     YY     -75.4549
        XZ       3.3910     YZ      -3.3850     ZZ     -86.1711

 Total job time:  42.72s(wall), 42.58s(cpu)
        *  Thank you very much for using Q-Chem.  Have a nice day.  *
