 Q-Chem 5.2, Q-Chem, Inc., Pleasanton, CA (2019)
 Q-Chem 5.2.1 for Intel X86 EM64T Linux

User input:
--------------------------------------------------------------
$molecule
0 1
C        -4.58484733600000    0.40221088410000   -0.00176400880000
C        -3.68433289520000   -0.57705803120000    0.00040754860000
C        -2.26098972850000   -0.38714716450000    0.00062866830000
C        -1.30511700690000   -1.37157987050000    0.00180839620000
C        -0.00740330200000   -0.84277234860000    0.00117647770000
S         1.58551764330000   -1.50706153500000    0.00156978300000
C         2.28989789180000    0.10130643250000   -0.00031890320000
C         3.72297282500000    0.21673678630000   -0.00063543480000
C         4.40403447150000    1.36044966850000   -0.00040418010000
C         1.33175347000000    1.08405510170000   -0.00127080350000
C         0.03666139120000    0.55060459960000   -0.00043744480000
S        -1.55577271220000    1.22106754120000   -0.00112415940000
H        -5.64081681090000    0.19938572230000   -0.00204025000000
H        -4.28776779210000    1.43807201030000   -0.00345669790000
H        -3.99959043350000   -1.61285635230000    0.00198696640000
H        -1.53329997200000   -2.42180049650000    0.00312023900000
H         4.25425757660000   -0.72629395840000   -0.00121851820000
H         3.91580739150000    2.31933431520000    0.00024692310000
H         5.47945320000000    1.36879466920000   -0.00053821510000
H         1.54948160790000    2.13542350080000   -0.00262626460000
$end

$rem
BASIS = 6-31G*
GUI = 2
METHOD = B3LYP
PRINT_ORBITALS false
MOLDEN_FORMAT false
--------------------------------------------------------------

             Standard Nuclear Orientation (Angstroms)
    I     Atom           X                Y                Z
 ----------------------------------------------------------------
    1      C       4.5677084237    -0.5440698005    -0.0009071825
    2      C       3.7009415973     0.4651936243     0.0001838574
    3      C       2.2719739172     0.3236900955     0.0004612564
    4      C       1.3500559716     1.3399917721     0.0005499155
    5      C       0.0351458068     0.8555231306     0.0003303713
    6      S      -1.5343167601     1.5734816802    -0.0001034856
    7      C      -2.2928673944    -0.0100597468    -0.0004269278
    8      C      -3.7290338847    -0.0767960164    -0.0007637252
    9      C      -4.4485125114    -1.1967392835     0.0005632950
   10      C      -1.3686219271    -1.0247552099    -0.0002892511
   11      C      -0.0561743425    -0.5355571009     0.0001267682
   12      S       1.5125921891    -1.2596696261     0.0002734369
   13      H       5.6299521941    -0.3771935537    -0.0012880492
   14      H       4.2356505832    -1.5692549231    -0.0015767666
   15      H       4.0511648397     1.4896990372     0.0007419775
   16      H       1.6137441882     2.3818655661     0.0008174678
   17      H      -4.2280131405     0.8837184200    -0.0023551222
   18      H      -3.9931040998    -2.1716373584     0.0022346768
   19      H      -5.5235950883    -1.1685879212     0.0003345857
   20      H      -1.6219002814    -2.0681309187    -0.0005982538
 ----------------------------------------------------------------

    9   -1182.2038037448      4.97e-06  Convergence criterion met
 Total energy in the final basis set =    -1182.2038037448

                    Orbital Energies (a.u.)
 --------------------------------------------------------------

 Alpha MOs
 -- Occupied --
-88.9110 -88.9077 -10.2256 -10.2245 -10.2207 -10.2194 -10.2021 -10.2020
-10.2008 -10.1999 -10.1857 -10.1841  -7.9723  -7.9692  -5.9364  -5.9334
 -5.9330  -5.9299  -5.9289  -5.9256  -0.9140  -0.8583  -0.7982  -0.7766
 -0.7638  -0.7117  -0.6966  -0.6329  -0.5943  -0.5605  -0.5388  -0.5279
 -0.4959  -0.4738  -0.4672  -0.4326  -0.4177  -0.4174  -0.3977  -0.3818
 -0.3805  -0.3638  -0.3623  -0.3565  -0.3335  -0.3080  -0.2921  -0.2575
 -0.2312  -0.1935

          Ground-State Mulliken Net Atomic Charges

     Atom                 Charge (a.u.)
  ----------------------------------------
      1 C                    -0.377087
      2 C                    -0.051213
      3 C                    -0.139724
      4 C                    -0.159167
      5 C                    -0.119487
      6 S                     0.240705
      7 C                    -0.130484
      8 C                    -0.086788
      9 C                    -0.340660
     10 C                    -0.143065
     11 C                    -0.117269
     12 S                     0.245138
     13 H                     0.148531
     14 H                     0.157600
     15 H                     0.139581
     16 H                     0.150945
     17 H                     0.139294
     18 H                     0.143283
     19 H                     0.148840
     20 H                     0.151026
  ----------------------------------------
  Sum of atomic charges =     0.000000

                    Cartesian Multipole Moments
 -----------------------------------------------------------------
    Charge (ESU x 10^10)
                 0.0000
    Dipole Moment (Debye)
         X      -0.0570      Y       0.1672      Z      -0.0004
       Tot       0.1766
    Quadrupole Moments (Debye-Ang)
        XX     -73.2202     XY       3.7139     YY     -77.3391
        XZ       0.0006     YZ      -0.0006     ZZ     -89.1494

 Total job time:  30.02s(wall), 29.82s(cpu)
        *  Thank you very much for using Q-Chem.  Have a nice day.  *
