 Q-Chem 5.4, Q-Chem, Inc., Pleasanton, CA (2021)
 Q-Chem 5.4.2 for Intel X86 EM64T Linux

User input:
--------------------------------------------------------------
$molecule
0 1
C           -1.75915690440000       -2.91089866910000        0.68425317940000
C           -1.41144966320000       -1.89008513990000       -0.08728084770000
C           -0.13586079460000       -1.18333293660000       -0.01902016610000
C            1.03267297250000       -1.86391639380000        0.33293881200000
C            2.25956082630000       -1.24479451070000        0.32977162950000
C            2.37118326540000        0.09623964940000       -0.04865629110000
O            3.62705123430000        0.61658195390000       -0.03792384680000
C            3.80458834960000        1.96128115620000       -0.41188544040000
C            1.22414513270000        0.78828929090000       -0.40603582100000
C           -0.02454966470000        0.16723818810000       -0.37535715960000
C           -1.18180813110000        0.99669280900000       -0.71771762570000
C           -2.33342305990000        1.03119948910000       -0.06950626570000
F           -2.66962847370000        0.34572517550000        1.01482549170000
F           -3.34727398900000        1.82692040400000       -0.41270457930000
H           -2.70987701620000       -3.40233027330000        0.57245081540000
H           -1.12246399320000       -3.27702702400000        1.47163684350000
H           -2.10372697810000       -1.53135470940000       -0.83930143450000
H            0.96856619220000       -2.90933168060000        0.59184118920000
H            3.15687893280000       -1.77742173250000        0.60142154220000
H            4.87310803490000        2.15188208580000       -0.32627455920000
H            3.26252045240000        2.63920903210000        0.25533277230000
H            3.48843460240000        2.13658484590000       -1.44529032610000
H            1.27000633400000        1.82732441800000       -0.69346750310000
H           -1.07477173100000        1.68972833270000       -1.53962400410000
$end

$rem
BASIS = 6-31G*
GUI = 2
METHOD = B3LYP
PRINT_ORBITALS false
MOLDEN_FORMAT false
$end
--------------------------------------------------------------

             Standard Nuclear Orientation (Angstroms)
    I     Atom           X                Y                Z
 ----------------------------------------------------------------
    1      C      -2.2047108642     2.7088474771    -0.0359331320
    2      C      -1.6966883353     1.6075000182     0.4999513956
    3      C      -0.3508546221     1.0983583967     0.2533919001
    4      C       0.7072702468     1.9798168725     0.0168694984
    5      C       1.9980716256     1.5352473077    -0.1405009098
    6      C       2.2897494532     0.1712470326    -0.0484836660
    7      O       3.5966845452    -0.1708746404    -0.1999732062
    8      C       3.9539117706    -1.5290827993    -0.1148735476
    9      C       1.2545975851    -0.7196754609     0.1904034059
   10      C      -0.0595064552    -0.2705238343     0.3218482123
   11      C      -1.0890827457    -1.2932167642     0.5181251808
   12      C      -2.2608250133    -1.3447692365    -0.0917502355
   13      F      -2.7336896433    -0.5050631950    -1.0027811244
   14      F      -3.1522397574    -2.3164614635     0.1083610661
   15      H      -3.2003271691     3.0418147143     0.2001908048
   16      H      -1.6590575898     3.3037721519    -0.7484834848
   17      H      -2.3002010951     1.0197064914     1.1809370666
   18      H       0.5045078549     3.0388490248    -0.0201650117
   19      H       2.8093321083     2.2221159715    -0.3214237791
   20      H       5.0315666705    -1.5599716229    -0.2668539820
   21      H       3.4627121200    -2.1235860786    -0.8919788865
   22      H       3.7161010585    -1.9467641926     0.8687923266
   23      H       1.4400121176    -1.7805617925     0.2571556315
   24      H      -0.8563537038    -2.1171496747     1.1771068763
 ----------------------------------------------------------------

    9    -700.0316601539      4.64e-06  Convergence criterion met
 Total energy in the final basis set =     -700.0316601539

                    Orbital Energies (a.u.)
 --------------------------------------------------------------

 Alpha MOs
 -- Occupied --
-24.7367 -24.7324 -19.1810 -10.3552 -10.2477 -10.2427 -10.2054 -10.2008
-10.1896 -10.1873 -10.1872 -10.1838 -10.1829 -10.1720  -1.2807  -1.2203
 -1.0715  -0.8696  -0.8067  -0.7890  -0.7447  -0.7357  -0.6946  -0.6436
 -0.6158  -0.6034  -0.5698  -0.5619  -0.5435  -0.5159  -0.5006  -0.4902
 -0.4777  -0.4743  -0.4531  -0.4409  -0.4367  -0.4330  -0.4252  -0.4101
 -0.4070  -0.3964  -0.3816  -0.3595  -0.3468  -0.3334  -0.3284  -0.2852
 -0.2690  -0.2353  -0.2060

          Ground-State Mulliken Net Atomic Charges

     Atom                 Charge (a.u.)
  ----------------------------------------
      1 C                    -0.345147
      2 C                    -0.125609
      3 C                     0.112772
      4 C                    -0.189060
      5 C                    -0.168514
      6 C                     0.381457
      7 O                    -0.504660
      8 C                    -0.214598
      9 C                    -0.256773
     10 C                     0.111215
     11 C                    -0.344726
     12 C                     0.567059
     13 F                    -0.226638
     14 F                    -0.249226
     15 H                     0.139950
     16 H                     0.139891
     17 H                     0.132597
     18 H                     0.134047
     19 H                     0.137176
     20 H                     0.170779
     21 H                     0.152589
     22 H                     0.150731
     23 H                     0.129125
     24 H                     0.165562
  ----------------------------------------
  Sum of atomic charges =     0.000000

                    Cartesian Multipole Moments
 -----------------------------------------------------------------
    Charge (ESU x 10^10)
                 0.0000
    Dipole Moment (Debye)
         X       1.4431      Y      -1.2907      Z       0.5048
       Tot       2.0008
    Quadrupole Moments (Debye-Ang)
        XX     -77.0089     XY      -7.0154     YY     -72.7912
        XZ      -1.4984     YZ      -1.9493     ZZ     -80.8488

 Total job time:  52.51s(wall), 51.07s(cpu)
        *  Thank you very much for using Q-Chem.  Have a nice day.  *
