 Q-Chem 5.2, Q-Chem, Inc., Pleasanton, CA (2019)
 Q-Chem 5.2.1 for Intel X86 EM64T Linux

User input:
--------------------------------------------------------------
$molecule
0 1
C        -4.30847246050000   -1.50503734650000    0.19512867270000
C        -3.06575558560000   -1.95555395640000    0.05714782080000
C        -1.90860904790000   -1.10173335280000   -0.00303508270000
N        -0.67860045690000   -1.50275358610000   -0.13112347540000
C         0.08355060600000   -0.37380868170000   -0.14156700230000
C         1.54567480940000   -0.45990139770000   -0.27422293980000
O         2.16266430260000   -1.48300821340000   -0.40669166360000
O         2.11837967530000    0.75864384260000   -0.23992878300000
C         3.54327188990000    0.79136453670000   -0.34408177300000
C         4.20893807810000    0.51259012530000    0.99584076370000
C        -0.75900301850000    0.72391843750000   -0.01290298270000
C        -0.50915761790000    2.13815753530000    0.03244565800000
C        -1.47327283420000    3.04765393800000    0.15649960750000
O        -2.01926571300000    0.24585764400000    0.07359052100000
H        -5.14835780710000   -2.17544747990000    0.23625121860000
H        -4.51934325440000   -0.45146770440000    0.27092479730000
H        -2.83477522680000   -3.00686829520000   -0.01986816750000
H         3.77637837880000    1.79728017600000   -0.69995656400000
H         3.86055591590000    0.04976588570000   -1.08437344030000
H         3.85747775300000    1.21719533440000    1.74600660600000
H         5.28604100040000    0.60883683030000    0.89363219870000
H         3.97460320690000   -0.49772032280000    1.32144940700000
H         0.53061682730000    2.41433174570000   -0.04308836740000
H        -2.50939900070000    2.76305641600000    0.23102847780000
H        -1.25251471910000    4.09981604180000    0.18642571240000
$end

$rem
BASIS = 6-31G*
GUI = 2
METHOD = B3LYP
PRINT_ORBITALS false
MOLDEN_FORMAT false
--------------------------------------------------------------

             Standard Nuclear Orientation (Angstroms)
    I     Atom           X                Y                Z
 ----------------------------------------------------------------
    1      C       4.5479618592     0.6568116448     0.2419118976
    2      C       3.4173632710     1.3461214898     0.1281229157
    3      C       2.1168640185     0.7371503031     0.0307807210
    4      N       0.9890518689     1.3750332745    -0.0754740091
    5      C       0.0222500831     0.4174242436    -0.1369488664
    6      C      -1.3943834272     0.7920424567    -0.2619585924
    7      O      -1.8000185113     1.9205587499    -0.3449206828
    8      O      -2.1930544881    -0.2922475052    -0.2833891841
    9      C      -3.5964333048    -0.0426044107    -0.3855779058
   10      C      -4.2043426328     0.2977471044     0.9675023379
   11      C       0.6346832495    -0.8278614795    -0.0618159642
   12      C       0.1146367677    -2.1671487416    -0.0821318542
   13      C       0.8829013569    -3.2514049990    -0.0030804247
   14      O       1.9631791597    -0.6083328183     0.0439719900
   15      H       5.5017571294     1.1486010896     0.3123812572
   16      H       4.5496877169    -0.4200111313     0.2678013817
   17      H       3.3954814594     2.4246985291     0.1009570515
   18      H      -4.0180433980    -0.9664413798    -0.7876002426
   19      H      -3.7586316516     0.7800348485    -1.0895848735
   20      H      -4.0015019224    -0.4957432581     1.6830233667
   21      H      -5.2789125154     0.4174749846     0.8634565484
   22      H      -3.7804691245     1.2270554545     1.3394946247
   23      H      -0.9584402497    -2.2322121153    -0.1680443237
   24      H       1.9540423253    -3.1773325798     0.0822309902
   25      H       0.4618104191    -4.2408504454    -0.0219202890
 ----------------------------------------------------------------

    9    -668.0767700941      8.94e-06  Convergence criterion met
 Total energy in the final basis set =     -668.0767700941

                    Orbital Energies (a.u.)
 --------------------------------------------------------------

 Alpha MOs
 -- Occupied --
-19.2390 -19.1918 -19.1319 -14.3340 -10.3163 -10.2836 -10.2691 -10.2434
-10.2293 -10.2099 -10.2075 -10.1999 -10.1984 -10.1796  -1.1547  -1.1078
 -1.0176  -0.9361  -0.8386  -0.7974  -0.7791  -0.7412  -0.6846  -0.6559
 -0.6334  -0.6017  -0.5842  -0.5551  -0.5199  -0.5062  -0.4961  -0.4763
 -0.4749  -0.4633  -0.4579  -0.4461  -0.4313  -0.4118  -0.4001  -0.3926
 -0.3866  -0.3794  -0.3714  -0.3466  -0.3418  -0.3204  -0.2999  -0.2919
 -0.2910  -0.2742  -0.2214

          Ground-State Mulliken Net Atomic Charges

     Atom                 Charge (a.u.)
  ----------------------------------------
      1 C                    -0.341222
      2 C                    -0.101037
      3 C                     0.501463
      4 N                    -0.484492
      5 C                     0.132368
      6 C                     0.596161
      7 O                    -0.467805
      8 O                    -0.480355
      9 C                    -0.044265
     10 C                    -0.465596
     11 C                     0.297622
     12 C                    -0.109749
     13 C                    -0.340141
     14 O                    -0.486583
     15 H                     0.157885
     16 H                     0.162967
     17 H                     0.170114
     18 H                     0.149033
     19 H                     0.171082
     20 H                     0.154775
     21 H                     0.152068
     22 H                     0.183393
     23 H                     0.175802
     24 H                     0.161992
     25 H                     0.154522
  ----------------------------------------
  Sum of atomic charges =     0.000000

                    Cartesian Multipole Moments
 -----------------------------------------------------------------
    Charge (ESU x 10^10)
                 0.0000
    Dipole Moment (Debye)
         X       0.5351      Y      -3.3641      Z       0.3168
       Tot       3.4211
    Quadrupole Moments (Debye-Ang)
        XX     -62.6207     XY       5.1230     YY     -82.8855
        XZ       0.7779     YZ       1.1393     ZZ     -81.8359

 Total job time:  34.61s(wall), 34.49s(cpu)
        *  Thank you very much for using Q-Chem.  Have a nice day.  *
