 Q-Chem 5.2, Q-Chem, Inc., Pleasanton, CA (2019)
 Q-Chem 5.2.1 for Intel X86 EM64T Linux

User input:
--------------------------------------------------------------
$molecule
0 1
C         3.55932167040000   -2.50222333530000    0.11701008400000
C         3.32603157170000   -1.20714147930000   -0.05542481440000
C         2.02469474740000   -0.54621861090000   -0.03914014190000
C         0.82601008290000   -1.24842347660000   -0.04139967810000
C        -0.39918729650000   -0.58107407140000   -0.02224333060000
C        -1.61048494850000   -1.38839939810000   -0.02775009470000
C        -2.87182973230000   -0.98600067070000    0.00028643070000
F        -3.33878005690000    0.25491394980000    0.04025733240000
F        -3.90266628970000   -1.83159607470000   -0.00773070800000
C        -0.41445323440000    0.80887458450000   -0.00049829180000
C         0.78045376150000    1.52731807200000   -0.00261700630000
O         0.64665711930000    2.88083196100000    0.01637272600000
C         1.80733470030000    3.67562131600000    0.01665636650000
C         1.99195898260000    0.85042383050000   -0.02567006270000
H         4.56011393600000   -2.89784981360000    0.09297365070000
H         2.77532708040000   -3.21789660850000    0.29533888030000
H         4.16663736490000   -0.54175503190000   -0.21191435770000
H         0.83510927210000   -2.32620079820000   -0.06783142800000
H        -1.47392131580000   -2.45989340530000   -0.05723149450000
H        -1.33330360770000    1.36904465350000    0.01480334030000
H         1.45734052950000    4.70642012140000    0.03591928870000
H         2.40584379160000    3.51502240800000   -0.88607104590000
H         2.42409122400000    3.48761909020000    0.90162024890000
H         2.92702836280000    1.38894741630000   -0.02784862180000
$end

$rem
BASIS = 6-31G*
GUI = 2
METHOD = B3LYP
PRINT_ORBITALS false
MOLDEN_FORMAT false
--------------------------------------------------------------

             Standard Nuclear Orientation (Angstroms)
    I     Atom           X                Y                Z
 ----------------------------------------------------------------
    1      C      -2.6396147292    -3.3459128677    -0.1102081313
    2      C      -2.7585034365    -2.0351074958     0.0602319764
    3      C      -1.6793877680    -1.0523895744     0.0418847802
    4      C      -0.3372740342    -1.4110924043     0.0440548627
    5      C       0.6667276273    -0.4424006519     0.0228943970
    6      C       2.0489161475    -0.8990959404     0.0284457229
    7      C       3.1581165653    -0.1762588966    -0.0012609685
    8      F       3.2787801927     1.1440355781    -0.0433580347
    9      F       4.3764854829    -0.7177647521     0.0070130315
   10      C       0.3123569670     0.9016692691    -0.0007835316
   11      C      -1.0304244858     1.2770377146     0.0013988683
   12      O      -1.2608435266     2.6174589277    -0.0195781765
   13      C      -2.5908979053     3.0755177333    -0.0199338020
   14      C      -2.0186891519     0.3027855953     0.0264571201
   15      H      -3.4994162753    -3.9930418742    -0.0847411014
   16      H      -1.6938156210    -3.8279971051    -0.2882411220
   17      H      -3.7455392463    -1.6165711353     0.2165452076
   18      H      -0.0598476960    -2.4525529345     0.0719829585
   19      H       2.2017868742    -1.9683399048     0.0595274145
   20      H       1.0494706039     1.6856902943    -0.0176705929
   21      H      -2.5271890315     4.1622161830    -0.0409294183
   22      H      -3.1248390189     2.7631742455     0.8835430131
   23      H      -3.1360222653     2.7291099024    -0.9040919137
   24      H      -3.0631859691     0.5736885865     0.0287182314
 ----------------------------------------------------------------

    9    -700.0380598598      5.04e-06  Convergence criterion met
 Total energy in the final basis set =     -700.0380598598

                    Orbital Energies (a.u.)
 --------------------------------------------------------------

 Alpha MOs
 -- Occupied --
-24.7425 -24.7318 -19.1782 -10.3549 -10.2467 -10.2409 -10.2057 -10.2007
-10.1977 -10.1918 -10.1854 -10.1818 -10.1814 -10.1802  -1.2835  -1.2222
 -1.0693  -0.8682  -0.8136  -0.7869  -0.7464  -0.7337  -0.6957  -0.6453
 -0.6303  -0.5999  -0.5703  -0.5676  -0.5217  -0.5170  -0.5121  -0.4925
 -0.4898  -0.4723  -0.4510  -0.4427  -0.4387  -0.4355  -0.4263  -0.4144
 -0.3974  -0.3888  -0.3755  -0.3662  -0.3533  -0.3371  -0.3280  -0.3168
 -0.2607  -0.2190  -0.2149

          Ground-State Mulliken Net Atomic Charges

     Atom                 Charge (a.u.)
  ----------------------------------------
      1 C                    -0.350200
      2 C                    -0.114308
      3 C                     0.182755
      4 C                    -0.267008
      5 C                     0.206473
      6 C                    -0.298802
      7 C                     0.545750
      8 F                    -0.232543
      9 F                    -0.250076
     10 C                    -0.256605
     11 C                     0.392678
     12 O                    -0.508029
     13 C                    -0.213731
     14 C                    -0.275928
     15 H                     0.144380
     16 H                     0.144028
     17 H                     0.125246
     18 H                     0.121879
     19 H                     0.158718
     20 H                     0.144502
     21 H                     0.170349
     22 H                     0.150859
     23 H                     0.151323
     24 H                     0.128289
  ----------------------------------------
  Sum of atomic charges =     0.000000

                    Cartesian Multipole Moments
 -----------------------------------------------------------------
    Charge (ESU x 10^10)
                 0.0000
    Dipole Moment (Debye)
         X      -2.2316      Y      -0.1135      Z       0.0204
       Tot       2.2345
    Quadrupole Moments (Debye-Ang)
        XX     -73.9613     XY      -5.6230     YY     -72.3622
        XZ      -0.2254     YZ       0.1903     ZZ     -82.1987

 Total job time:  32.74s(wall), 32.62s(cpu)
        *  Thank you very much for using Q-Chem.  Have a nice day.  *
