 Q-Chem 5.2, Q-Chem, Inc., Pleasanton, CA (2019)
 Q-Chem 5.2.1 for Intel X86 EM64T Linux

User input:
--------------------------------------------------------------
$molecule
0 1
C         5.82942788330000   -0.43769418870000    0.73126999290000
C         5.03083942880000   -0.10113368470000   -0.26920372020000
C         3.56360917280000   -0.04292007610000   -0.18037747290000
C         2.92827159510000    0.81719527390000    0.73066356530000
C         3.65291403080000    1.70128582960000    1.57277981230000
C         3.01817652620000    2.52054636580000    2.45489255130000
C         1.61223281260000    2.51474006560000    2.55166493670000
C         0.87665203630000    1.70597236400000    1.74287544160000
C         1.49999026840000    0.84408144100000    0.80267834160000
C         0.74006338560000    0.03336008040000   -0.04920183570000
C        -0.74007293740000    0.06901450940000    0.02170416070000
C        -1.45028500000000    0.98940323690000   -0.75938194940000
C        -0.78202231320000    1.90223419410000   -1.61615068970000
C        -1.47828063400000    2.77732310260000   -2.39075469070000
C        -2.88703459700000    2.78411554240000   -2.36044500550000
C        -3.56330090400000    1.92404406270000   -1.55055376860000
C        -2.87774104400000    1.00726488350000   -0.71107645110000
C        -3.56532377920000    0.11332814420000    0.12685364810000
C        -5.03559027480000    0.15173561480000    0.15812132800000
C        -5.81763953150000   -0.86937260810000   -0.15441934540000
C        -2.84928420620000   -0.79290441930000    0.92651371530000
C        -3.49080703160000   -1.67502835690000    1.83544067920000
C        -2.77886617460000   -2.55070443670000    2.59606450220000
C        -1.37350038200000   -2.59983356490000    2.50330670030000
C        -0.71542148810000   -1.75290009160000    1.66724017360000
C        -1.42062404450000   -0.81957657090000    0.86291680070000
C         1.37034706870000   -0.81027137230000   -0.97251614880000
C         0.62103567410000   -1.63862918930000   -1.84786460600000
C         1.23935960180000   -2.47534366290000   -2.72432812270000
C         2.64629177210000   -2.53823556560000   -2.77095187110000
C         3.39894084200000   -1.75623350170000   -1.94937496410000
C         2.79672514640000   -0.85482811150000   -1.03287549930000
H         6.90028179740000   -0.47112443350000    0.61863500250000
H         5.43979354740000   -0.70742922350000    1.69934541320000
H         5.45110589770000    0.13958318400000   -1.23924175730000
H         4.72923183710000    1.72066146090000    1.49472122330000
H         3.58843679740000    3.18691172570000    3.08568176220000
H         1.12680004580000    3.16608681800000    3.26352417270000
H        -0.20218097890000    1.70774350450000    1.79809018940000
H         0.29779302650000    1.88498961360000   -1.64125703390000
H        -0.95902526450000    3.46821963250000   -3.03859175400000
H        -3.42572993590000    3.47675520170000   -2.99067099710000
H        -4.64291635060000    1.92396909110000   -1.54442683890000
H        -5.47391772130000    1.10066923970000    0.44600595970000
H        -5.41125903000000   -1.81681640530000   -0.46905897590000
H        -6.89185891580000   -0.79484998100000   -0.12245379630000
H        -4.56582716670000   -1.63293900300000    1.92214616980000
H        -3.28651330270000   -3.21248200310000    3.28271722630000
H        -0.82620043890000   -3.30593379860000    3.11037411520000
H         0.36277355500000   -1.77135490060000    1.60315003510000
H        -0.45715544830000   -1.59188687980000   -1.80016634360000
H         0.65892617230000   -3.10149645180000   -3.38590892780000
H         3.12213991360000   -3.21724612350000   -3.46351993580000
H         4.47623087720000   -1.82081100290000   -1.97974786750000
$end

$rem
BASIS = 6-31G*
GUI = 2
METHOD = B3LYP
PRINT_ORBITALS false
MOLDEN_FORMAT false
--------------------------------------------------------------

             Standard Nuclear Orientation (Angstroms)
    I     Atom           X                Y                Z
 ----------------------------------------------------------------
    1      C      -5.8305932588     0.4411249643     0.7157383053
    2      C      -5.0300991669     0.1015312030    -0.2821842515
    3      C      -3.5631285914     0.0420948378    -0.1899443494
    4      C      -2.9306680966    -0.8165768393     0.7244541958
    5      C      -3.6580528934    -1.6980598284     1.5669395910
    6      C      -3.0260879653    -2.5159415646     2.4523164630
    7      C      -1.6203590744    -2.5112808073     2.5522208983
    8      C      -0.8821839212    -1.7050557924     1.7432565051
    9      C      -1.5025782050    -0.8446860356     0.7997248863
   10      C      -0.7399587965    -0.0366283045    -0.0522799078
   11      C       0.7399798641    -0.0735585510     0.0220178112
   12      C       1.4510380644    -0.9963975632    -0.7553987364
   13      C       0.7838021502    -1.9105123244    -1.6115987642
   14      C       1.4809363409    -2.7880234770    -2.3826666617
   15      C       2.8896117424    -2.7961142475    -2.3491898780
   16      C       3.5649045784    -1.9348724377    -1.5397301727
   17      C       2.8783644718    -1.0155350105    -0.7038594120
   18      C       3.5649440579    -0.1203756999     0.1335879257
   19      C       5.0350988347    -0.1601389229     0.1682316571
   20      C       5.8188402087     0.8595016140    -0.1448615389
   21      C       2.8480030422     0.7883547923     0.9295972376
   22      C       3.4883526433     1.6719063642     1.8379646802
   23      C       2.7755677841     2.5499883291     2.5950160576
   24      C       1.3704614160     2.6002713402     2.4990035321
   25      C       0.7134272588     1.7520907371     1.6633797191
   26      C       1.4195152925     0.8162693521     0.8627440016
   27      C      -1.3673540548     0.8055269038    -0.9789031672
   28      C      -0.6152804465     1.6311783367    -1.8544396654
   29      C      -1.2308274514     2.4665107909    -2.7341700001
   30      C      -2.6375898886     2.5306622436    -2.7840832614
   31      C      -3.3928357632     1.7512482246    -1.9624300984
   32      C      -2.7935495216     0.8513310948    -1.0425541011
   33      H      -6.9011596245     0.4753396983     0.6006325440
   34      H      -5.4428608500     0.7126674515     1.6840720190
   35      H      -5.4484309303    -0.1409679181    -1.2526145793
   36      H      -4.7342119198    -1.7165674225     1.4865169735
   37      H      -3.5984063600    -3.1803270607     3.0833300651
   38      H      -1.1371541300    -3.1614889084     3.2666322237
   39      H       0.1965207432    -1.7077489370     1.8008887361
   40      H      -0.2959370430    -1.8922768367    -1.6391598529
   41      H       0.9624567446    -3.4798772007    -3.0301034136
   42      H       3.4290386445    -3.4906977683    -2.9766446701
   43      H       4.6445031930    -1.9358310947    -1.5311879266
   44      H       5.4718560355    -1.1088447978     0.4592365477
   45      H       5.4140882075     1.8066262468    -0.4625464542
   46      H       6.8929122700     0.7840091729    -0.1103245683
   47      H       4.5631347301     1.6289699460     1.9271699309
   48      H       3.2823240143     3.2128221010     3.2813080010
   49      H       0.8224948268     3.3082714418     3.1032502426
   50      H      -0.3646033261     1.7714468367     1.5968359276
   51      H       0.4627552687     1.5834978065    -1.8042238531
   52      H      -0.6483063217     3.0906044277    -3.3958615512
   53      H      -3.1112263759     3.2085683345    -3.4792444841
   54      H      -4.4699917254     1.8168021459    -1.9953588633
 ----------------------------------------------------------------

    9   -1232.6340481912      1.62e-06  Convergence criterion met
 Total energy in the final basis set =    -1232.6340481912

                    Orbital Energies (a.u.)
 --------------------------------------------------------------

 Alpha MOs
 -- Occupied --
-10.1948 -10.1948 -10.1937 -10.1937 -10.1922 -10.1922 -10.1918 -10.1917
-10.1916 -10.1916 -10.1915 -10.1915 -10.1910 -10.1908 -10.1847 -10.1847
-10.1834 -10.1834 -10.1828 -10.1827 -10.1827 -10.1827 -10.1825 -10.1825
-10.1820 -10.1820 -10.1811 -10.1810 -10.1796 -10.1796 -10.1793 -10.1793
 -0.8945  -0.8800  -0.8494  -0.8493  -0.8239  -0.8114  -0.8080  -0.7825
 -0.7554  -0.7498  -0.7482  -0.7455  -0.7377  -0.7376  -0.7079  -0.6885
 -0.6507  -0.6409  -0.6232  -0.6161  -0.6145  -0.5970  -0.5874  -0.5866
 -0.5626  -0.5457  -0.5343  -0.5315  -0.5249  -0.5247  -0.5032  -0.4867
 -0.4682  -0.4608  -0.4602  -0.4600  -0.4596  -0.4524  -0.4464  -0.4442
 -0.4367  -0.4261  -0.4248  -0.4230  -0.4157  -0.4109  -0.4040  -0.4036
 -0.3898  -0.3884  -0.3864  -0.3748  -0.3746  -0.3699  -0.3667  -0.3622
 -0.3565  -0.3422  -0.3422  -0.3336  -0.3335  -0.3269  -0.3050  -0.3015
 -0.3015  -0.2913  -0.2908  -0.2643  -0.2641  -0.2570  -0.2469  -0.2396
 -0.2360  -0.1868  -0.1863

          Ground-State Mulliken Net Atomic Charges

     Atom                 Charge (a.u.)
  ----------------------------------------
      1 C                    -0.319678
      2 C                    -0.165990
      3 C                     0.009572
      4 C                     0.077344
      5 C                    -0.197938
      6 C                    -0.134404
      7 C                    -0.134778
      8 C                    -0.190281
      9 C                     0.138201
     10 C                    -0.161821
     11 C                    -0.161662
     12 C                     0.135987
     13 C                    -0.186923
     14 C                    -0.136046
     15 C                    -0.129709
     16 C                    -0.198493
     17 C                     0.079574
     18 C                     0.009540
     19 C                    -0.166379
     20 C                    -0.319361
     21 C                     0.077736
     22 C                    -0.198057
     23 C                    -0.134470
     24 C                    -0.134789
     25 C                    -0.190011
     26 C                     0.137986
     27 C                     0.135846
     28 C                    -0.186861
     29 C                    -0.135945
     30 C                    -0.129797
     31 C                    -0.198645
     32 C                     0.079552
     33 H                     0.143691
     34 H                     0.154324
     35 H                     0.146840
     36 H                     0.138769
     37 H                     0.125681
     38 H                     0.127849
     39 H                     0.145730
     40 H                     0.146449
     41 H                     0.128665
     42 H                     0.126913
     43 H                     0.130158
     44 H                     0.146850
     45 H                     0.154194
     46 H                     0.143697
     47 H                     0.138758
     48 H                     0.125690
     49 H                     0.127867
     50 H                     0.146010
     51 H                     0.146749
     52 H                     0.128624
     53 H                     0.126881
     54 H                     0.130312
  ----------------------------------------
  Sum of atomic charges =     0.000000

                    Cartesian Multipole Moments
 -----------------------------------------------------------------
    Charge (ESU x 10^10)
                 0.0000
    Dipole Moment (Debye)
         X       0.0070      Y       0.0000      Z      -0.1165
       Tot       0.1167
    Quadrupole Moments (Debye-Ang)
        XX    -160.4503     XY      -0.5403     YY    -175.7458
        XZ       0.5920     YZ      -0.0734     ZZ    -176.2354

 Total job time:  279.67s(wall), 278.91s(cpu)
        *  Thank you very much for using Q-Chem.  Have a nice day.  *
