 Q-Chem 5.2, Q-Chem, Inc., Pleasanton, CA (2019)
 Q-Chem 5.2.1 for Intel X86 EM64T Linux

User input:
--------------------------------------------------------------
$molecule
0 1
C         4.15841606840000   -2.05265989860000    0.39833554200000
C         2.99295033000000   -2.06845603960000   -0.23724094840000
C         1.94026610800000   -1.05632089480000   -0.13908138430000
C         0.62236001490000   -1.49719991540000   -0.14305817140000
C        -0.42245104350000   -0.60102378520000   -0.01453349060000
O        -1.71510358820000   -1.18280217680000   -0.01524620830000
C        -2.77941570510000   -0.42126844650000    0.01646713660000
F        -2.91839260360000    0.30877177220000    1.14172487260000
F        -2.86515898000000    0.46969309000000   -0.99224204260000
F        -3.86512615660000   -1.18759631510000   -0.06641850270000
C        -0.17960098030000    0.75076305130000    0.11780701430000
C         1.12876200310000    1.22505028000000    0.08908953750000
C         1.37852613880000    2.65834453250000    0.24896188570000
C         0.58328378100000    3.62094136030000   -0.19857947420000
C         2.20371973410000    0.32672279360000   -0.06146406730000
N         3.49341810040000    0.80353864340000   -0.13157431670000
H         4.86521483200000   -2.85771398090000    0.28740155060000
H         4.43047001910000   -1.26975361210000    1.08586747610000
H         2.74021554900000   -2.91990511010000   -0.85748354090000
H         0.39997333250000   -2.54866758790000   -0.22482616700000
H        -0.97702327850000    1.46119450730000    0.25927321940000
H         2.27974853380000    2.91975312760000    0.78979816070000
H        -0.31172987000000    3.41026888900000   -0.75924034890000
H         0.80665525290000    4.66046581180000   -0.03065565000000
H         3.59358740110000    1.75724364180000   -0.43863493110000
H         4.16824079230000    0.16297813900000   -0.52079022100000
$end

$rem
BASIS = 6-31G*
GUI = 2
METHOD = B3LYP
PRINT_ORBITALS false
MOLDEN_FORMAT false
--------------------------------------------------------------

             Standard Nuclear Orientation (Angstroms)
    I     Atom           X                Y                Z
 ----------------------------------------------------------------
    1      C       4.0636999065     2.0001876121    -0.3949019544
    2      C       2.8978290629     2.0374159156     0.2390354321
    3      C       1.8268999971     1.0447454269     0.1394705806
    4      C       0.5172961242     1.5097184478     0.1415638609
    5      C      -0.5435920292     0.6328401091     0.0116365627
    6      O      -1.8253582167     1.2382253869     0.0104910229
    7      C      -2.9034108987     0.4963339401    -0.0226622092
    8      F      -3.0541727708    -0.2311456488    -1.1480610617
    9      F      -3.0068937442    -0.3928061873     0.9859902142
   10      F      -3.9750010206     1.2824508426     0.0586424163
   11      C      -0.3253865427    -0.7231858110    -0.1202644734
   12      C       0.9740173114    -1.2213832045    -0.0896745030
   13      C       1.1976796446    -2.6590323328    -0.2490917229
   14      C       0.3842915546    -3.6068401207     0.1974018846
   15      C       2.0650555769    -0.3429045338     0.0623238934
   16      N       3.3456935142    -0.8432837798     0.1342805577
   17      H       4.7849866162     2.7921559612    -0.2830335744
   18      H       4.3223156357     1.2123564248    -1.0819941541
   19      H       2.6598806080     2.8934174668     0.8588605203
   20      H       0.3141142402     2.5650954735     0.2229429950
   21      H      -1.1355034128    -1.4188885957    -0.2627992226
   22      H       2.0947148224    -2.9369767773    -0.7886423792
   23      H      -0.5074941538    -3.3797351741     0.7567895279
   24      H       0.5887979803    -4.6503024680     0.0298675234
   25      H       3.4279258271    -1.7986351015     0.4415508500
   26      H       4.0316025459    -0.2151675962     0.5243975984
 ----------------------------------------------------------------

    9    -854.6475444590      3.10e-06  Convergence criterion met
 Total energy in the final basis set =     -854.6475444590

                    Orbital Energies (a.u.)
 --------------------------------------------------------------

 Alpha MOs
 -- Occupied --
-24.7223 -24.7204 -24.7198 -19.2144 -14.3475 -10.4739 -10.2562 -10.2371
-10.2023 -10.2019 -10.2001 -10.1980 -10.1969 -10.1965 -10.1885 -10.1874
 -1.3183  -1.2182  -1.2129  -1.1119  -0.9376  -0.8618  -0.8165  -0.7898
 -0.7472  -0.7344  -0.6891  -0.6506  -0.6364  -0.6161  -0.5943  -0.5899
 -0.5627  -0.5601  -0.5310  -0.5181  -0.4788  -0.4745  -0.4693  -0.4625
 -0.4574  -0.4550  -0.4364  -0.4327  -0.4295  -0.4126  -0.4101  -0.3986
 -0.3957  -0.3943  -0.3809  -0.3802  -0.3624  -0.3436  -0.3112  -0.3104
 -0.2817  -0.2343  -0.2008

          Ground-State Mulliken Net Atomic Charges

     Atom                 Charge (a.u.)
  ----------------------------------------
      1 C                    -0.362390
      2 C                    -0.143661
      3 C                     0.139280
      4 C                    -0.252153
      5 C                     0.341729
      6 O                    -0.525258
      7 C                     0.972412
      8 F                    -0.279382
      9 F                    -0.281021
     10 F                    -0.256739
     11 C                    -0.242113
     12 C                     0.126593
     13 C                    -0.153655
     14 C                    -0.336524
     15 C                     0.201636
     16 N                    -0.817337
     17 H                     0.147692
     18 H                     0.168803
     19 H                     0.141834
     20 H                     0.147370
     21 H                     0.162858
     22 H                     0.141863
     23 H                     0.152969
     24 H                     0.146368
     25 H                     0.329181
     26 H                     0.329645
  ----------------------------------------
  Sum of atomic charges =     0.000000

                    Cartesian Multipole Moments
 -----------------------------------------------------------------
    Charge (ESU x 10^10)
                 0.0000
    Dipole Moment (Debye)
         X       3.8558      Y      -0.8037      Z       0.9792
       Tot       4.0586
    Quadrupole Moments (Debye-Ang)
        XX     -85.6672     XY       0.8843     YY     -81.7237
        XZ       2.4452     YZ       0.3821     ZZ     -92.5457

 Total job time:  45.03s(wall), 44.68s(cpu)
        *  Thank you very much for using Q-Chem.  Have a nice day.  *
