 Q-Chem 5.2, Q-Chem, Inc., Pleasanton, CA (2019)
 Q-Chem 5.2.1 for Intel X86 EM64T Linux

User input:
--------------------------------------------------------------
$molecule
0 1
C        -4.17044864430000   -1.17029181230000   -0.22162954130000
C        -3.27691105210000   -0.20537193530000   -0.04425919090000
C        -1.82762261970000   -0.36704626510000    0.00650759570000
C        -1.17837364670000   -1.60673262220000   -0.02344733110000
C         0.20080590440000   -1.62581689480000   -0.02348036080000
C         0.91264320860000   -0.42957891360000    0.02001611380000
C         2.40122295270000   -0.50424914470000   -0.04402029670000
N         2.97491658470000    0.36572458860000   -0.91367881570000
O         3.04986248560000   -1.30198113640000    0.59721258330000
C         0.18010112500000    0.76547090980000    0.13678544580000
C         0.83040137230000    2.05922756830000    0.34445797300000
C         0.20120325950000    3.21639828780000    0.18354095780000
N        -1.14621602820000    0.76846228860000    0.10701682900000
H        -5.22529192670000   -0.95678706550000   -0.24690980230000
H        -3.89683564900000   -2.20395446180000   -0.35044439060000
H        -3.59645725170000    0.82136651140000    0.07110826460000
H        -1.73912583800000   -2.52653394560000   -0.04712925010000
H         0.74829067540000   -2.55646123890000   -0.06240218610000
H         2.43286530940000    0.99260154990000   -1.48070540710000
H         3.97397776700000    0.33724249370000   -1.03392953620000
H         1.86321695860000    2.02670266910000    0.66334685890000
H        -0.82820626250000    3.23889065190000   -0.12983766560000
H         0.68834655740000    4.15974305940000    0.36101847950000
$end

$rem
BASIS = 6-31G*
GUI = 2
METHOD = B3LYP
PRINT_ORBITALS false
MOLDEN_FORMAT false
--------------------------------------------------------------

             Standard Nuclear Orientation (Angstroms)
    I     Atom           X                Y                Z
 ----------------------------------------------------------------
    1      C       4.2740885731    -0.5417614000     0.1984464704
    2      C       3.2427604614     0.2783172376     0.0410508124
    3      C       1.8356691608    -0.1031258626    -0.0201704982
    4      C       1.3849902647    -1.4283122305    -0.0238329697
    5      C       0.0251903318    -1.6593990718    -0.0304253234
    6      C      -0.8622942415    -0.5862397420    -0.0474483549
    7      C      -2.3216708222    -0.8906783382     0.0080772843
    8      N      -3.0229732376    -0.1415138586     0.8964534007
    9      O      -2.8393869879    -1.7623319261    -0.6556087674
   10      C      -0.3223918834     0.7098583369    -0.1313070159
   11      C      -1.1639883154     1.8929446619    -0.3097636630
   12      C      -0.7205314933     3.1287358630    -0.1174233934
   13      N       0.9876356118     0.9161644324    -0.0955569606
   14      H       5.2834729545    -0.1691797170     0.2337137222
   15      H       4.1627917771    -1.6081271360     0.3003922884
   16      H       3.4005008583     1.3445734963    -0.0474185005
   17      H       2.0806455980    -2.2511673204    -0.0204438636
   18      H      -0.3725194370    -2.6638892137    -0.0170136591
   19      H      -2.5842276730     0.5468396217     1.4812484767
   20      H      -4.0058109642    -0.3264143109     1.0115035524
   21      H      -2.1792947355     1.7099075500    -0.6339647036
   22      H       0.2929572361     3.3014776792     0.2010053934
   23      H      -1.3469885464     3.9900440169    -0.2736477390
 ----------------------------------------------------------------

    9    -571.7827378240      4.64e-06  Convergence criterion met
 Total energy in the final basis set =     -571.7827378240

                    Orbital Energies (a.u.)
 --------------------------------------------------------------

 Alpha MOs
 -- Occupied --
-19.1126 -14.3602 -14.3275 -10.2916 -10.2360 -10.2340 -10.2097 -10.2057
-10.1999 -10.1935 -10.1916 -10.1910 -10.1862  -1.0401  -0.9580  -0.9115
 -0.8219  -0.8146  -0.7762  -0.7400  -0.6707  -0.6478  -0.6067  -0.5838
 -0.5629  -0.5512  -0.5223  -0.4966  -0.4811  -0.4702  -0.4401  -0.4309
 -0.4242  -0.4154  -0.4033  -0.4022  -0.3931  -0.3658  -0.3537  -0.3268
 -0.3035  -0.2718  -0.2688  -0.2632  -0.2465  -0.2305

          Ground-State Mulliken Net Atomic Charges

     Atom                 Charge (a.u.)
  ----------------------------------------
      1 C                    -0.344044
      2 C                    -0.091262
      3 C                     0.312960
      4 C                    -0.178771
      5 C                    -0.124253
      6 C                     0.026978
      7 C                     0.493250
      8 N                    -0.740034
      9 O                    -0.492592
     10 C                     0.268858
     11 C                    -0.132574
     12 C                    -0.325311
     13 N                    -0.576807
     14 H                     0.152682
     15 H                     0.146431
     16 H                     0.145972
     17 H                     0.139671
     18 H                     0.164819
     19 H                     0.344321
     20 H                     0.343037
     21 H                     0.151915
     22 H                     0.169860
     23 H                     0.144896
  ----------------------------------------
  Sum of atomic charges =     0.000000

                    Cartesian Multipole Moments
 -----------------------------------------------------------------
    Charge (ESU x 10^10)
                 0.0000
    Dipole Moment (Debye)
         X       0.6179      Y       1.1589      Z       2.4869
       Tot       2.8124
    Quadrupole Moments (Debye-Ang)
        XX     -66.5776     XY     -10.8078     YY     -73.4807
        XZ      -6.8615     YZ      -1.8181     ZZ     -76.6456

 Total job time:  32.58s(wall), 31.88s(cpu)
        *  Thank you very much for using Q-Chem.  Have a nice day.  *
