 Q-Chem 5.2, Q-Chem, Inc., Pleasanton, CA (2019)
 Q-Chem 5.2.1 for Intel X86 EM64T Linux

User input:
--------------------------------------------------------------
$molecule
0 1
C        -4.54228352130000   -1.36936577060000   -0.31799989490000
C        -3.75398224620000   -0.30257363590000   -0.26651399930000
C        -2.32891062910000   -0.28790940150000    0.03971793920000
C        -1.60795723590000   -1.43233393940000    0.38307829120000
C        -0.26296982140000   -1.34370455990000    0.67636474180000
C         0.42555414210000   -0.13130989190000    0.62352725220000
C         1.88660702920000   -0.11731464970000    0.96104444980000
C         2.79337875920000   -0.43483177060000   -0.22981054550000
O         3.93694911540000   -0.08722819680000   -0.28683767120000
O         2.23539366050000   -1.16146512430000   -1.20567832390000
C        -0.27868912810000    1.02454462180000    0.26115397160000
C         0.32876512170000    2.35507748920000    0.15691310920000
C         1.49079431680000    2.64855145940000   -0.40827977310000
C        -1.64295359870000    0.92303999500000    0.00224528330000
H        -5.58811040990000   -1.27937739040000   -0.55587005820000
H        -4.18837333450000   -2.36847323860000   -0.13010089620000
H        -4.17782402350000    0.67288879280000   -0.47187186080000
H        -2.09886009130000   -2.39067989640000    0.43818582190000
H         0.26904995840000   -2.23727635720000    0.97734876400000
H         2.10248105890000   -0.88560964380000    1.71038414620000
H         2.19891059410000    0.84441469190000    1.36894089220000
H         1.29749710400000   -1.34440683490000   -1.02606142870000
H        -0.29182681540000    3.15718007490000    0.53904586950000
H         2.13100402540000    1.90916888510000   -0.85743896130000
H         1.83931861270000    3.66579919490000   -0.46555068970000
H        -2.18420839210000    1.82304897280000   -0.25568045880000
$end

$rem
BASIS = 6-31G*
GUI = 2
METHOD = B3LYP
PRINT_ORBITALS false
MOLDEN_FORMAT false
--------------------------------------------------------------

             Standard Nuclear Orientation (Angstroms)
    I     Atom           X                Y                Z
 ----------------------------------------------------------------
    1      C       4.6577343699    -0.6331994063     0.3903369799
    2      C       3.7083942346     0.2924401932     0.3266204530
    3      C       2.3042048670     0.0773655031    -0.0002086330
    4      C       1.7824603085    -1.1678844806    -0.3530722655
    5      C       0.4451705947    -1.2970576147    -0.6658561796
    6      C      -0.4307169908    -0.2117829850    -0.6239301091
    7      C      -1.8698533629    -0.4332767543    -0.9825612244
    8      C      -2.7305377369    -0.8948612416     0.1952969512
    9      O      -3.9159223999    -0.7364938386     0.2355022176
   10      O      -2.0766922239    -1.5234276213     1.1797011738
   11      C       0.0724194564     1.0420200405    -0.2523062079
   12      C      -0.7432803364     2.2568887943    -0.1579012659
   13      C      -1.9454618334     2.3580607637     0.3901915152
   14      C       1.4313048911     1.1616522277     0.0263924807
   15      H       5.6717840349    -0.3759528374     0.6432430569
   16      H       4.4724846886    -1.6760357632     0.1981155580
   17      H       3.9662163600     1.3232021810     0.5373290892
   18      H       2.4223634328    -2.0343373525    -0.4003251916
   19      H       0.0687591362    -2.2643145313    -0.9738098381
   20      H      -1.9480623360    -1.2251669893    -1.7343470898
   21      H      -2.3273952109     0.4660689817    -1.3956823390
   22      H      -1.1190763903    -1.5522991541     1.0138150712
   23      H      -0.2548630768     3.1492431585    -0.5316399797
   24      H      -2.4643272196     1.5243322735     0.8306169393
   25      H      -2.4544076042     3.3056214435     0.4416216477
   26      H       1.8164104046     2.1368200285     0.2914209767
 ----------------------------------------------------------------

    9    -614.9148750012      5.48e-06  Convergence criterion met
 Total energy in the final basis set =     -614.9148750012

                    Orbital Energies (a.u.)
 --------------------------------------------------------------

 Alpha MOs
 -- Occupied --
-19.1889 -19.1262 -10.3140 -10.2152 -10.2123 -10.2108 -10.2069 -10.2059
-10.2044 -10.2026 -10.2021 -10.2011 -10.1921 -10.1902  -1.1007  -1.0167
 -0.8889  -0.8260  -0.8004  -0.7721  -0.7470  -0.7140  -0.6440  -0.6241
 -0.6141  -0.6012  -0.5511  -0.5254  -0.5107  -0.5030  -0.4819  -0.4642
 -0.4606  -0.4453  -0.4401  -0.4335  -0.4185  -0.3960  -0.3957  -0.3837
 -0.3785  -0.3700  -0.3566  -0.3472  -0.3207  -0.3101  -0.2993  -0.2678
 -0.2512  -0.2319

          Ground-State Mulliken Net Atomic Charges

     Atom                 Charge (a.u.)
  ----------------------------------------
      1 C                    -0.351037
      2 C                    -0.111448
      3 C                     0.185721
      4 C                    -0.171744
      5 C                    -0.224825
      6 C                     0.059733
      7 C                    -0.457466
      8 C                     0.597457
      9 O                    -0.449009
     10 O                    -0.566641
     11 C                     0.127992
     12 C                    -0.143047
     13 C                    -0.345191
     14 C                    -0.264631
     15 H                     0.150793
     16 H                     0.145605
     17 H                     0.132394
     18 H                     0.135593
     19 H                     0.141194
     20 H                     0.187357
     21 H                     0.195400
     22 H                     0.420788
     23 H                     0.141891
     24 H                     0.175354
     25 H                     0.152976
     26 H                     0.134791
  ----------------------------------------
  Sum of atomic charges =     0.000000

                    Cartesian Multipole Moments
 -----------------------------------------------------------------
    Charge (ESU x 10^10)
                 0.0000
    Dipole Moment (Debye)
         X       4.5295      Y       0.6651      Z      -1.3076
       Tot       4.7611
    Quadrupole Moments (Debye-Ang)
        XX     -94.6858     XY      -5.5335     YY     -73.1882
        XZ       5.5914     YZ       3.1212     ZZ     -84.5709

 Total job time:  40.08s(wall), 39.95s(cpu)
        *  Thank you very much for using Q-Chem.  Have a nice day.  *
