 Q-Chem 5.2, Q-Chem, Inc., Pleasanton, CA (2019)
 Q-Chem 5.2.1 for Intel X86 EM64T Linux

User input:
--------------------------------------------------------------
$molecule
0 1
C        -3.05433995240000   -1.49004847110000    0.51789685030000
C        -2.63647423840000   -0.38605824320000   -0.08693160760000
C        -1.28780931770000    0.17583284110000   -0.03082744660000
C        -1.14341927240000    1.55309993850000   -0.20325369930000
C         0.09197485520000    2.17553080820000   -0.14939089750000
C         0.21715158180000    3.66189927650000   -0.30100979570000
C         1.21811109210000    1.39634330350000    0.06856749760000
C         1.12709318590000    0.01654925680000    0.22013677910000
C         2.30817293070000   -0.81295739880000    0.44938245270000
C         3.54501425560000   -0.51410148230000    0.07565833090000
C        -0.13627208850000   -0.59219769210000    0.17639910970000
O        -0.21959933520000   -1.96930278330000    0.31855979300000
C        -0.06422068590000   -2.67001059750000   -0.89504425480000
H        -4.07665193350000   -1.82001708200000    0.43241243520000
H        -2.39786238870000   -2.09442804810000    1.11804105610000
H        -3.34192715780000    0.20956859820000   -0.65579433930000
H        -2.03098735250000    2.14817411460000   -0.36894542240000
H        -0.68594775210000    4.08697629520000   -0.73161523940000
H         1.06361220690000    3.91434455660000   -0.93655543650000
H         0.38129723800000    4.12336005110000    0.67294519660000
H         2.18591621900000    1.87048726820000    0.13475531900000
H         2.10879975530000   -1.75102305120000    0.95146924030000
H         3.78514415270000    0.39141036800000   -0.45619893950000
H         4.36927425960000   -1.17604380530000    0.27971807790000
H        -0.12407755770000   -3.72871652170000   -0.64797446050000
H         0.90612970620000   -2.45584998500000   -1.35821585500000
H        -0.86120868330000   -2.41510576050000   -1.60302942450000
$end

$rem
BASIS = 6-31G*
GUI = 2
METHOD = B3LYP
PRINT_ORBITALS false
MOLDEN_FORMAT false
--------------------------------------------------------------

             Standard Nuclear Orientation (Angstroms)
    I     Atom           X                Y                Z
 ----------------------------------------------------------------
    1      C       3.2038351917     1.1630410285    -0.5283826472
    2      C       2.1099563773     1.6405558879     0.0500915011
    3      C       0.7724389992     1.0526098340    -0.0058820349
    4      C      -0.3246170079     1.9044221658     0.1294982594
    5      C      -1.6276122983     1.4402014470     0.0727317460
    6      C      -2.7899674336     2.3806763517     0.1840251402
    7      C      -1.8403409662     0.0821952688    -0.1099909604
    8      C      -0.7786034620    -0.8093452484    -0.2238245941
    9      C      -0.9928133958    -2.2421241557    -0.4157697457
   10      C      -2.0682031020    -2.9189609955    -0.0360462762
   11      C       0.5339611247    -0.3157441413    -0.1778920272
   12      O       1.5883255610    -1.2107216852    -0.2823063635
   13      C       1.9724822381    -1.7731236113     0.9522366577
   14      H       4.1478419955     1.6761932638    -0.4457110445
   15      H       3.1940707586     0.2544729468    -1.1035515175
   16      H       2.1602771846     2.5775929044     0.5936624802
   17      H      -0.1431189270     2.9614140861     0.2679563612
   18      H      -2.4781204508     3.3388615835     0.5918638924
   19      H      -3.5651728076     1.9611659390     0.8221553092
   20      H      -3.2250219024     2.5536330559    -0.8005010188
   21      H      -2.8510823804    -0.2914461353    -0.1780643418
   22      H      -0.1710959971    -2.7600361051    -0.8936355250
   23      H      -2.8949313334    -2.4521536480     0.4729699968
   24      H      -2.1571600254    -3.9774679739    -0.2117227283
   25      H       2.7818363982    -2.4680579278     0.7342992779
   26      H       1.1414018612    -2.3134086774     1.4206062095
   27      H       2.3305735466    -1.0014128198     1.6433534448
 ----------------------------------------------------------------

    8    -540.8777738505      7.73e-06  Convergence criterion met
 Total energy in the final basis set =     -540.8777738505

                    Orbital Energies (a.u.)
 --------------------------------------------------------------

 Alpha MOs
 -- Occupied --
-19.1601 -10.2348 -10.2275 -10.1915 -10.1909 -10.1901 -10.1850 -10.1846
-10.1819 -10.1810 -10.1797 -10.1769 -10.1709  -1.0505  -0.8629  -0.8019
 -0.7876  -0.7459  -0.7184  -0.7062  -0.6610  -0.6286  -0.6056  -0.5544
 -0.5411  -0.5158  -0.4950  -0.4655  -0.4594  -0.4486  -0.4399  -0.4373
 -0.4223  -0.4178  -0.4141  -0.3872  -0.3744  -0.3679  -0.3639  -0.3478
 -0.3389  -0.3284  -0.3044  -0.2728  -0.2646  -0.2202  -0.2174

          Ground-State Mulliken Net Atomic Charges

     Atom                 Charge (a.u.)
  ----------------------------------------
      1 C                    -0.340139
      2 C                    -0.137353
      3 C                     0.176204
      4 C                    -0.279651
      5 C                     0.202043
      6 C                    -0.530209
      7 C                    -0.264866
      8 C                     0.156034
      9 C                    -0.119964
     10 C                    -0.347706
     11 C                     0.178625
     12 O                    -0.523577
     13 C                    -0.209764
     14 H                     0.134594
     15 H                     0.169097
     16 H                     0.126886
     17 H                     0.120735
     18 H                     0.155350
     19 H                     0.158753
     20 H                     0.167199
     21 H                     0.121777
     22 H                     0.149261
     23 H                     0.140070
     24 H                     0.142613
     25 H                     0.156990
     26 H                     0.147914
     27 H                     0.149084
  ----------------------------------------
  Sum of atomic charges =     0.000000

                    Cartesian Multipole Moments
 -----------------------------------------------------------------
    Charge (ESU x 10^10)
                 0.0000
    Dipole Moment (Debye)
         X      -0.4455      Y       0.1844      Z       1.1683
       Tot       1.2639
    Quadrupole Moments (Debye-Ang)
        XX     -71.5425     XY      -1.3248     YY     -71.2061
        XZ       1.2432     YZ      -0.1188     ZZ     -79.5133

 Total job time:  35.75s(wall), 35.63s(cpu)
        *  Thank you very much for using Q-Chem.  Have a nice day.  *
