 Q-Chem 5.2, Q-Chem, Inc., Pleasanton, CA (2019)
 Q-Chem 5.2.1 for Intel X86 EM64T Linux

User input:
--------------------------------------------------------------
$molecule
0 1
C        -3.70424049970000   -0.24622740360000   -0.12838883000000
C        -2.75924087360000    0.66713955220000    0.08484036460000
C        -1.32963958570000    0.44747922840000    0.06208482420000
C        -0.72996329700000   -0.75536093030000    0.05551602920000
C         0.68926219300000   -1.00710124630000    0.03116499270000
C         1.67790013000000   -0.12004646780000   -0.00861334980000
F         1.58124116140000    1.20402153500000   -0.03384435210000
F         2.96533334240000   -0.46113180480000   -0.02840470940000
H        -4.74873463940000    0.01036337390000   -0.09349091250000
H        -3.47652963350000   -1.27343610160000   -0.35582290120000
H        -3.05801284050000    1.68909284020000    0.28102802620000
H        -0.72820722500000    1.34476321950000    0.06596224370000
H        -1.33611071020000   -1.64922935660000    0.07919408660000
H         1.00622912200000   -2.03955551490000    0.04527605440000
$end

$rem
BASIS = 6-31G*
GUI = 2
METHOD = B3LYP
PRINT_ORBITALS false
MOLDEN_FORMAT false
--------------------------------------------------------------

             Standard Nuclear Orientation (Angstroms)
    I     Atom           X                Y                Z
 ----------------------------------------------------------------
    1      C       3.5565195290    -0.3354716243     0.1201055896
    2      C       2.6397087691     0.6103351020    -0.0738991675
    3      C       1.2040821136     0.4339986509    -0.0536537477
    4      C       0.5679596262    -0.7498764000    -0.0700028350
    5      C      -0.8582746097    -0.9586197606    -0.0488069646
    6      C      -1.8193371589    -0.0427644016     0.0096841029
    7      F      -1.6822741172     1.2769821953     0.0608532164
    8      F      -3.1165719389    -0.3447258341     0.0243946584
    9      H       4.6083382966    -0.1102372941     0.0889370760
   10      H       3.2977001559    -1.3595370995     0.3275631493
   11      H       2.9694165573     1.6263639953    -0.2503102550
   12      H       0.6303275748     1.3491207358    -0.0391011378
   13      H       1.1465128409    -1.6611857832    -0.1120443177
   14      H      -1.2066305369    -1.9804412030    -0.0828372550
 ----------------------------------------------------------------

    9    -431.8563564510      6.05e-06  Convergence criterion met
 Total energy in the final basis set =     -431.8563564510

                    Orbital Energies (a.u.)
 --------------------------------------------------------------

 Alpha MOs
 -- Occupied --
-24.7450 -24.7356 -10.3571 -10.2037 -10.1985 -10.1894 -10.1880 -10.1792
 -1.2859  -1.2253  -0.8297  -0.7879  -0.7215  -0.6521  -0.6155  -0.5753
 -0.5556  -0.5193  -0.4996  -0.4830  -0.4541  -0.4417  -0.4324  -0.4203
 -0.4084  -0.3616  -0.3546  -0.3391  -0.2852  -0.2066

          Ground-State Mulliken Net Atomic Charges

     Atom                 Charge (a.u.)
  ----------------------------------------
      1 C                    -0.340194
      2 C                    -0.074367
      3 C                    -0.144928
      4 C                    -0.106071
      5 C                    -0.244550
      6 C                     0.551913
      7 F                    -0.233757
      8 F                    -0.247238
      9 H                     0.143676
     10 H                     0.139456
     11 H                     0.127615
     12 H                     0.135998
     13 H                     0.132817
     14 H                     0.159629
  ----------------------------------------
  Sum of atomic charges =     0.000000

                    Cartesian Multipole Moments
 -----------------------------------------------------------------
    Charge (ESU x 10^10)
                 0.0000
    Dipole Moment (Debye)
         X       0.6174      Y      -0.6502      Z      -0.0554
       Tot       0.8984
    Quadrupole Moments (Debye-Ang)
        XX     -45.4853     XY       0.8431     YY     -41.2807
        XZ       0.0414     YZ      -0.3931     ZZ     -47.3155

 Total job time:  9.06s(wall), 9.01s(cpu)
        *  Thank you very much for using Q-Chem.  Have a nice day.  *
