 Q-Chem 5.4, Q-Chem, Inc., Pleasanton, CA (2021)
 Q-Chem 5.4.2 for Intel X86 EM64T Linux

User input:
--------------------------------------------------------------
$molecule
0 1
C           -2.75438664430000        3.41860274870000        0.03795974350000
C           -1.56772281720000        2.82698562530000       -0.02280331600000
C           -1.30498674290000        1.39182391890000       -0.01449718580000
C           -2.32323823770000        0.43685230200000       -0.00761942550000
C           -2.04563456900000       -0.91936941380000        0.00079507790000
C           -3.12488090130000       -1.95657110150000        0.00981887330000
C           -0.71182354930000       -1.30676553780000        0.00252412160000
F           -0.43270159240000       -2.63096112950000        0.01065034230000
C            0.34549333100000       -0.39452609420000       -0.00579967450000
C            1.70515393930000       -0.91011446850000       -0.00524267450000
C            2.83883846220000       -0.22596831990000       -0.00169219590000
F            2.99897810570000        1.09233537000000        0.00184427070000
F            4.03674742620000       -0.80426378660000       -0.00108673630000
C            0.01880008060000        0.95999694310000       -0.01556806560000
H           -2.84286647270000        4.49114611160000        0.02719011220000
H           -3.67981396980000        2.87273712920000        0.10273541430000
H           -0.67862489070000        3.44226490940000       -0.08010188330000
H           -3.35480312810000        0.75120758560000       -0.01224255470000
H           -4.10635639040000       -1.49378407210000       -0.03682024900000
H           -3.05965464250000       -2.55824083460000        0.91566128990000
H           -3.00788683600000       -2.62971103460000       -0.83829119300000
H            1.81186712910000       -1.98535969330000       -0.00667106690000
H            0.80516175640000        1.69676550970000       -0.02283537580000
$end

$rem
BASIS = 6-31G*
GUI = 2
METHOD = B3LYP
PRINT_ORBITALS false
MOLDEN_FORMAT false
$end
--------------------------------------------------------------

             Standard Nuclear Orientation (Angstroms)
    I     Atom           X                Y                Z
 ----------------------------------------------------------------
    1      C       3.3385167039     2.6931708428    -0.0352524655
    2      C       2.0479352866     2.3885323710     0.0236458843
    3      C       1.4641239834     1.0514110640     0.0159431094
    4      C       2.2371432456    -0.1110339003     0.0118049451
    5      C       1.6569020773    -1.3679068817     0.0039031534
    6      C       2.4705090518    -2.6243494349    -0.0021974369
    7      C       0.2698577437    -1.4401721481    -0.0001379521
    8      F      -0.3045415605    -2.6655194928    -0.0077793909
    9      C      -0.5509627325    -0.3103968973     0.0054029826
   10      C      -1.9924761638    -0.5015505730     0.0025831430
   11      C      -2.9397588537     0.4236115237    -0.0037221083
   12      F      -2.7943179175     1.7436134083    -0.0085995749
   13      F      -4.2381364996     0.1344383477    -0.0062245584
   14      C       0.0766777085     0.9336033255     0.0147561849
   15      H       3.6697946648     3.7171076988    -0.0251451505
   16      H       4.1147819907     1.9501484523    -0.0977890833
   17      H       1.3229168869     3.1908176879     0.0787225264
   18      H       3.3132431644    -0.0407861354     0.0182047193
   19      H       3.5317012159    -2.3980996844     0.0460044223
   20      H       2.2710483975    -3.1962739494    -0.9076968645
   21      H       2.2012808039    -3.2519030201     0.8462059541
   22      H      -2.3421434272    -1.5239353401     0.0046401973
   23      H      -0.5204682035     1.8306181720     0.0199083564
 ----------------------------------------------------------------

    9    -724.0687757955      4.67e-06  Convergence criterion met
 Total energy in the final basis set =     -724.0687757955

                    Orbital Energies (a.u.)
 --------------------------------------------------------------

 Alpha MOs
 -- Occupied --
-24.7466 -24.7362 -24.7140 -10.3593 -10.2702 -10.2130 -10.2050 -10.2044
-10.1981 -10.1928 -10.1926 -10.1922 -10.1878 -10.1811  -1.2880  -1.2269
 -1.2242  -0.8790  -0.8199  -0.8016  -0.7621  -0.7289  -0.6983  -0.6540
 -0.6273  -0.6110  -0.5789  -0.5616  -0.5400  -0.5214  -0.5159  -0.5097
 -0.4747  -0.4707  -0.4452  -0.4430  -0.4394  -0.4372  -0.4288  -0.4199
 -0.4079  -0.4066  -0.3891  -0.3833  -0.3745  -0.3533  -0.3419  -0.3184
 -0.2793  -0.2338  -0.2164

          Ground-State Mulliken Net Atomic Charges

     Atom                 Charge (a.u.)
  ----------------------------------------
      1 C                    -0.356061
      2 C                    -0.113437
      3 C                     0.199596
      4 C                    -0.249110
      5 C                     0.111821
      6 C                    -0.522848
      7 C                     0.241879
      8 F                    -0.289368
      9 C                     0.133275
     10 C                    -0.298441
     11 C                     0.550683
     12 F                    -0.234444
     13 F                    -0.245768
     14 C                    -0.289538
     15 H                     0.145289
     16 H                     0.142094
     17 H                     0.129515
     18 H                     0.125913
     19 H                     0.157108
     20 H                     0.172317
     21 H                     0.171948
     22 H                     0.174839
     23 H                     0.142735
  ----------------------------------------
  Sum of atomic charges =     0.000000

                    Cartesian Multipole Moments
 -----------------------------------------------------------------
    Charge (ESU x 10^10)
                 0.0000
    Dipole Moment (Debye)
         X       1.4155      Y      -0.1048      Z       0.0058
       Tot       1.4194
    Quadrupole Moments (Debye-Ang)
        XX     -75.3980     XY      -0.7304     YY     -75.5147
        XZ      -0.1458     YZ       0.0928     ZZ     -80.4121

 Total job time:  62.13s(wall), 53.40s(cpu)
        *  Thank you very much for using Q-Chem.  Have a nice day.  *
