 Q-Chem 5.2, Q-Chem, Inc., Pleasanton, CA (2019)
 Q-Chem 5.2.1 for Intel X86 EM64T Linux

User input:
--------------------------------------------------------------
$molecule
0 1
C        -4.78971393420000    1.61153259230000    0.73863581490000
C        -3.55953069890000    1.90567891590000    0.33547569340000
C        -2.49572247200000    0.95673664250000    0.03639925270000
C        -2.61203978300000   -0.42261561590000    0.20324494890000
C        -1.58708128110000   -1.30918962450000   -0.09018694690000
C        -1.72850732830000   -2.75083577010000    0.08734675190000
C        -2.63224496320000   -3.36059073460000    0.84405987650000
C        -0.36921417820000   -0.80012612680000   -0.59452264940000
O         0.59794742780000   -1.70952018740000   -0.87717268720000
C         1.83431193370000   -1.25933206120000   -1.38883790600000
C         2.64855437820000   -0.44637315420000   -0.41052602670000
C         3.55980085140000    0.49424444600000   -0.87305144150000
C         4.31646436470000    1.23058611430000    0.02053791830000
C         4.16368555940000    1.03832411100000    1.38337075030000
C         3.25658357470000    0.10223848870000    1.84888892800000
C         2.50497659790000   -0.64091810300000    0.95623252350000
C        -0.22234154240000    0.56975154010000   -0.76477926300000
C        -1.27008821870000    1.41135756050000   -0.44845177870000
F        -1.07447068900000    2.73678810150000   -0.63415202950000
H        -5.51022693880000    2.38657050940000    0.93410394330000
H        -5.13207334130000    0.60186778410000    0.88696956680000
H        -3.28517862680000    2.94372813300000    0.19936497840000
H        -3.54441996640000   -0.82146214030000    0.56603187470000
H        -0.99572306390000   -3.33975194730000   -0.44669381530000
H        -3.36236404000000   -2.82492755780000    1.42674497800000
H        -2.66581960060000   -4.43386979640000    0.91787820640000
H         1.68371353980000   -0.69774733890000   -2.32118767120000
H         2.37331697380000   -2.18270877340000   -1.63230343800000
H         3.67511126490000    0.65008486960000   -1.93674261740000
H         5.02208002700000    1.96029370570000   -0.34804695980000
H         4.74983333710000    1.61850404010000    2.08028483000000
H         3.13330989930000   -0.05183980360000    2.91058407040000
H         1.79714808760000   -1.37271730610000    1.31745296120000
H         0.69261769740000    1.00939322780000   -1.12617316870000
$end

$rem
BASIS = 6-31G*
GUI = 2
METHOD = B3LYP
PRINT_ORBITALS false
MOLDEN_FORMAT false
--------------------------------------------------------------

             Standard Nuclear Orientation (Angstroms)
    I     Atom           X                Y                Z
 ----------------------------------------------------------------
    1      C       4.7741995248     1.6994886579    -0.6767468798
    2      C       3.5370787881     1.9771638745    -0.2832501291
    3      C       2.4824566744     1.0142468461     0.0034362728
    4      C       2.6171143882    -0.3629934284    -0.1670230544
    5      C       1.6006212164    -1.2630523394     0.1145640001
    6      C       1.7612408416    -2.7022372578    -0.0665747781
    7      C       2.6788647185    -3.2982668965    -0.8174893356
    8      C       0.3723089314    -0.7706766388     0.6100592329
    9      O      -0.5860211940    -1.6928092507     0.8812879007
   10      C      -1.8321697178    -1.2595558534     1.3837550012
   11      C      -2.6478772939    -0.4532413391     0.4011741494
   12      C      -3.5745369332     0.4745500452     0.8589584045
   13      C      -4.3324610226     1.2046649583    -0.0386628725
   14      C      -4.1656189967     1.0190026098    -1.4007614739
   15      C      -3.2431332258     0.0957024782    -1.8615589849
   16      C      -2.4901734927    -0.6412854519    -0.9649371833
   17      C       0.2071861932     0.5967041333     0.7836334626
   18      C       1.2472134670     1.4521567362     0.4791979476
   19      F       1.0337636325     2.7744441032     0.6676447760
   20      H       5.4868067830     2.4839563764    -0.8633797979
   21      H       5.1301803626     0.6946077687    -0.8255014830
   22      H       3.2488546409     3.0113013052    -0.1460350478
   23      H       3.5574024221    -0.7491439883    -0.5230734277
   24      H       1.0311686596    -3.3019197221     0.4591341912
   25      H       3.4073435914    -2.7516974536    -1.3920423867
   26      H       2.7262347622    -4.3707929912    -0.8946139222
   27      H      -1.6964957629    -0.6993992526     2.3192498017
   28      H      -2.3618827817    -2.1902954775     1.6194545412
   29      H      -3.7008950264     0.6252871003     1.9221298955
   30      H      -5.0501180085     1.9244044829     0.3262548053
   31      H      -4.7528227643     1.5943744552    -2.1007658859
   32      H      -3.1088515462    -0.0531820543    -2.9226597912
   33      H      -1.7703415966    -1.3631148196    -1.3224786264
   34      H      -0.7161712407     1.0238645412     1.1385782671
 ----------------------------------------------------------------

    9    -831.8510601657      3.30e-06  Convergence criterion met
 Total energy in the final basis set =     -831.8510601657

                    Orbital Energies (a.u.)
 --------------------------------------------------------------

 Alpha MOs
 -- Occupied --
-24.7048 -19.1905 -10.2691 -10.2560 -10.2548 -10.2005 -10.1937 -10.1935
-10.1931 -10.1925 -10.1913 -10.1911 -10.1901 -10.1892 -10.1891 -10.1867
-10.1841 -10.1748 -10.1744  -1.2154  -1.0832  -0.8714  -0.8646  -0.8049
 -0.7847  -0.7784  -0.7527  -0.7328  -0.7271  -0.6931  -0.6384  -0.6245
 -0.6132  -0.5942  -0.5747  -0.5518  -0.5486  -0.5230  -0.5197  -0.4939
 -0.4773  -0.4736  -0.4618  -0.4589  -0.4503  -0.4492  -0.4406  -0.4280
 -0.4259  -0.4211  -0.4136  -0.3971  -0.3894  -0.3705  -0.3651  -0.3607
 -0.3522  -0.3504  -0.3433  -0.3352  -0.3256  -0.3000  -0.2745  -0.2570
 -0.2507  -0.2292  -0.2030

          Ground-State Mulliken Net Atomic Charges

     Atom                 Charge (a.u.)
  ----------------------------------------
      1 C                    -0.354349
      2 C                    -0.112191
      3 C                     0.114662
      4 C                    -0.278609
      5 C                     0.112516
      6 C                    -0.103813
      7 C                    -0.350385
      8 C                     0.327655
      9 O                    -0.522908
     10 C                    -0.110195
     11 C                     0.104763
     12 C                    -0.177362
     13 C                    -0.126454
     14 C                    -0.125076
     15 C                    -0.126751
     16 C                    -0.158680
     17 C                    -0.256806
     18 C                     0.298829
     19 F                    -0.293872
     20 H                     0.143582
     21 H                     0.139330
     22 H                     0.140749
     23 H                     0.134756
     24 H                     0.146385
     25 H                     0.138811
     26 H                     0.141582
     27 H                     0.151866
     28 H                     0.175018
     29 H                     0.125068
     30 H                     0.132215
     31 H                     0.131378
     32 H                     0.134124
     33 H                     0.147970
     34 H                     0.156194
  ----------------------------------------
  Sum of atomic charges =     0.000000

                    Cartesian Multipole Moments
 -----------------------------------------------------------------
    Charge (ESU x 10^10)
                 0.0000
    Dipole Moment (Debye)
         X      -1.7556      Y      -0.5145      Z       0.1856
       Tot       1.8389
    Quadrupole Moments (Debye-Ang)
        XX    -100.7477     XY      -3.1096     YY    -109.1825
        XZ      -4.5083     YZ      -0.6112     ZZ    -105.5035

 Total job time:  73.47s(wall), 73.10s(cpu)
        *  Thank you very much for using Q-Chem.  Have a nice day.  *
