 Q-Chem 5.2, Q-Chem, Inc., Pleasanton, CA (2019)
 Q-Chem 5.2.1 for Intel X86 EM64T Linux

User input:
--------------------------------------------------------------
$molecule
0 1
C        -3.91619852380000    3.01860047910000    0.34708513460000
C        -3.79790816050000    1.70092083060000    0.46485518870000
C        -2.64803051320000    0.87316348070000    0.12673164370000
C        -2.73168836670000   -0.50633536830000    0.31978863740000
C        -1.71111556750000   -1.40760636540000    0.03729025860000
C        -1.96849422130000   -2.81603391810000    0.31144925880000
C        -1.14235999170000   -3.84952151630000    0.19511137480000
C        -0.50518894330000   -0.89368607550000   -0.49092228840000
O         0.48476674330000   -1.76919672530000   -0.79059406210000
C         1.69380367720000   -1.28788783820000   -1.33962592440000
C         2.51743622220000   -0.45519716050000   -0.38589469620000
C         2.41306093620000   -0.64717649050000    0.98480534820000
C         3.17522647220000    0.11181588660000    1.85490218660000
C         4.05358774990000    1.06150410220000    1.36258174870000
C         4.16683173720000    1.25166547300000   -0.00440245310000
C         3.39969363910000    0.49927775150000   -0.87540592640000
C        -0.38995453740000    0.47690056420000   -0.68795451970000
C        -1.43407877490000    1.32803152930000   -0.38421725400000
F        -1.21591570930000    2.64178329270000   -0.61178066680000
H        -4.82819075410000    3.51495086910000    0.63357539310000
H        -3.13342238740000    3.65110952670000   -0.02937602150000
H        -4.63625705350000    1.13472770190000    0.85367322750000
H        -3.65584664300000   -0.90023096770000    0.71917989430000
H        -2.97639003140000   -3.00352328460000    0.66450332820000
H        -0.12839921880000   -3.75158121470000   -0.14255478720000
H        -1.47429538030000   -4.84441539950000    0.44282104610000
H         1.50289436320000   -0.73336531120000   -2.26853800110000
H         2.24836968140000   -2.19819155260000   -1.59815528190000
H         1.72707959630000   -1.38901746970000    1.36715248860000
H         3.08275262020000   -0.04052112930000    2.91998556420000
H         4.64829213460000    1.65367852690000    2.04193678640000
H         4.84965154030000    1.99218725350000   -0.39378602080000
H         3.48412459350000    0.65318636960000   -1.94222333090000
H         0.51602955840000    0.91956667140000   -1.06802176150000
$end

$rem
BASIS = 6-31G*
GUI = 2
METHOD = B3LYP
PRINT_ORBITALS false
MOLDEN_FORMAT false
--------------------------------------------------------------

             Standard Nuclear Orientation (Angstroms)
    I     Atom           X                Y                Z
 ----------------------------------------------------------------
    1      C       4.2073920221    -2.6398741823     0.3095881564
    2      C       3.9535472282    -1.3465411579     0.4738883705
    3      C       2.7317824823    -0.6264049573     0.1415886204
    4      C       2.6711443127     0.7458007820     0.3878834339
    5      C       1.5695003777     1.5498773248     0.1167651265
    6      C       1.6772324246     2.9651801838     0.4490101014
    7      C       0.7525087900     3.9137706881     0.3531396734
    8      C       0.4319333792     0.9380762682    -0.4568395922
    9      O      -0.6363239985     1.7203121538    -0.7454007220
   10      C      -1.7799227640     1.1414373990    -1.3386548159
   11      C      -2.5318153497     0.1928982602    -0.4351734209
   12      C      -2.4725013320     0.3402326081     0.9437186388
   13      C      -3.1692292945    -0.5255393541     1.7677594732
   14      C      -3.9373099093    -1.5388896073     1.2209696707
   15      C      -4.0056977753    -1.6854585153    -0.1543382986
   16      C      -3.3033354931    -0.8257145809    -0.9794218019
   17      C       0.4603298929    -0.4283006150    -0.7074713068
   18      C       1.5799116673    -1.1809924814    -0.4127387595
   19      F       1.5007053185    -2.5000558421    -0.6940253229
   20      H       5.1597731366    -3.0525336498     0.5974294018
   21      H       3.5000085497    -3.3328329722    -0.1074800821
   22      H       4.7227268113    -0.7143849426     0.9020522189
   23      H       3.5430083041     1.2149197460     0.8220679765
   24      H       2.6542266715     3.2393890930     0.8310377419
   25      H      -0.2399077591     3.7273643448    -0.0103011841
   26      H       0.9769473293     4.9265450407     0.6451507604
   27      H      -1.5167022721     0.6460829037    -2.2831960495
   28      H      -2.4194106415     2.0005911014    -1.5751794538
   29      H      -1.8726235048     1.1318759297     1.3686129982
   30      H      -3.1121522280    -0.4067638882     2.8395781044
   31      H      -4.4809679002    -2.2143996895     1.8643896264
   32      H      -4.6024369920    -2.4751937881    -0.5861431849
   33      H      -3.3522212615    -0.9451720936    -2.0528536384
   34      H      -0.3888480760    -0.9448301627    -1.1237711700
 ----------------------------------------------------------------

    9    -831.8501098181      2.81e-06  Convergence criterion met
 Total energy in the final basis set =     -831.8501098181

                    Orbital Energies (a.u.)
 --------------------------------------------------------------

 Alpha MOs
 -- Occupied --
-24.7067 -19.1916 -10.2706 -10.2574 -10.2557 -10.2011 -10.1950 -10.1945
-10.1939 -10.1928 -10.1926 -10.1914 -10.1904 -10.1894 -10.1894 -10.1879
-10.1847 -10.1710 -10.1676  -1.2176  -1.0847  -0.8717  -0.8650  -0.8043
 -0.7829  -0.7786  -0.7530  -0.7359  -0.7260  -0.6941  -0.6321  -0.6240
 -0.6130  -0.5952  -0.5857  -0.5579  -0.5456  -0.5245  -0.5147  -0.4873
 -0.4804  -0.4725  -0.4635  -0.4603  -0.4497  -0.4464  -0.4409  -0.4282
 -0.4261  -0.4209  -0.4072  -0.3931  -0.3836  -0.3808  -0.3712  -0.3642
 -0.3553  -0.3482  -0.3364  -0.3355  -0.3196  -0.3008  -0.2747  -0.2573
 -0.2510  -0.2290  -0.2029

          Ground-State Mulliken Net Atomic Charges

     Atom                 Charge (a.u.)
  ----------------------------------------
      1 C                    -0.364047
      2 C                    -0.108682
      3 C                     0.136667
      4 C                    -0.327398
      5 C                     0.159846
      6 C                    -0.111271
      7 C                    -0.363794
      8 C                     0.335783
      9 O                    -0.525378
     10 C                    -0.112485
     11 C                     0.105715
     12 C                    -0.160090
     13 C                    -0.126781
     14 C                    -0.124968
     15 C                    -0.126474
     16 C                    -0.176853
     17 C                    -0.264064
     18 C                     0.311069
     19 F                    -0.291868
     20 H                     0.136464
     21 H                     0.157376
     22 H                     0.126316
     23 H                     0.136569
     24 H                     0.122685
     25 H                     0.165313
     26 H                     0.132448
     27 H                     0.153741
     28 H                     0.175279
     29 H                     0.148533
     30 H                     0.134323
     31 H                     0.131567
     32 H                     0.132471
     33 H                     0.125279
     34 H                     0.156709
  ----------------------------------------
  Sum of atomic charges =     0.000000

                    Cartesian Multipole Moments
 -----------------------------------------------------------------
    Charge (ESU x 10^10)
                 0.0000
    Dipole Moment (Debye)
         X      -1.6814      Y       0.2135      Z      -0.1841
       Tot       1.7049
    Quadrupole Moments (Debye-Ang)
        XX    -101.0083     XY       4.2984     YY    -109.3199
        XZ       4.6115     YZ       0.5188     ZZ    -105.6761

 Total job time:  74.29s(wall), 74.08s(cpu)
        *  Thank you very much for using Q-Chem.  Have a nice day.  *
