 Q-Chem 5.2, Q-Chem, Inc., Pleasanton, CA (2019)
 Q-Chem 5.2.1 for Intel X86 EM64T Linux

User input:
--------------------------------------------------------------
$molecule
0 1
C        -3.70422405270000    0.24619480720000    0.12865059990000
C        -2.75925200080000   -0.66705418180000   -0.08520256360000
C        -1.32964569700000   -0.44743290850000   -0.06235917090000
C        -0.72995504240000    0.75539625220000   -0.05518633950000
C         0.68927365000000    1.00710818480000   -0.03072369070000
C         1.67789984830000    0.12002330470000    0.00866720840000
F         1.58122282470000   -1.20405405000000    0.03331478900000
F         2.96533777910000    0.46108201520000    0.02859691840000
H        -4.74872615380000   -0.01034962380000    0.09362651070000
H        -3.47648067970000    1.27324758610000    0.35674714270000
H        -3.05805042010000   -1.68887413580000   -0.28203372750000
H        -0.72822742490000   -1.34472461160000   -0.06670631310000
H        -1.33609539480000    1.64928198260000   -0.07840246540000
H         1.00625404470000    2.03956327600000   -0.04438226550000
$end

$rem
BASIS = 6-31G*
GUI = 2
METHOD = B3LYP
PRINT_ORBITALS false
MOLDEN_FORMAT false
--------------------------------------------------------------

             Standard Nuclear Orientation (Angstroms)
    I     Atom           X                Y                Z
 ----------------------------------------------------------------
    1      C       3.5565076778    -0.3354637953     0.1202087883
    2      C       2.6397116140     0.6103215920    -0.0739665159
    3      C       1.2040829114     0.4339980809    -0.0537240922
    4      C       0.5679589525    -0.7498761516    -0.0700468099
    5      C      -0.8582755009    -0.9586181296    -0.0488461029
    6      C      -1.8193352450    -0.0427635503     0.0096991375
    7      F      -1.6822679404     1.2769800114     0.0609268321
    8      F      -3.1165708155    -0.3447213719     0.0243964776
    9      H       4.6083307348    -0.1102476272     0.0890269731
   10      H       3.2976706055    -1.3594891535     0.3278332644
   11      H       2.9694317054     1.6263183812    -0.2505287049
   12      H       0.6303329776     1.3491239000    -0.0391987710
   13      H       1.1465143635    -1.6611855086    -0.1120671205
   14      H      -1.2066340423    -1.9804360254    -0.0829218577
 ----------------------------------------------------------------

    9    -431.8563565591      6.05e-06  Convergence criterion met
 Total energy in the final basis set =     -431.8563565591

                    Orbital Energies (a.u.)
 --------------------------------------------------------------

 Alpha MOs
 -- Occupied --
-24.7450 -24.7356 -10.3571 -10.2037 -10.1985 -10.1894 -10.1880 -10.1792
 -1.2859  -1.2253  -0.8297  -0.7879  -0.7215  -0.6521  -0.6155  -0.5753
 -0.5556  -0.5193  -0.4996  -0.4830  -0.4541  -0.4417  -0.4324  -0.4203
 -0.4084  -0.3616  -0.3546  -0.3391  -0.2852  -0.2066

          Ground-State Mulliken Net Atomic Charges

     Atom                 Charge (a.u.)
  ----------------------------------------
      1 C                    -0.340193
      2 C                    -0.074369
      3 C                    -0.144928
      4 C                    -0.106072
      5 C                    -0.244551
      6 C                     0.551913
      7 F                    -0.233757
      8 F                    -0.247237
      9 H                     0.143676
     10 H                     0.139457
     11 H                     0.127616
     12 H                     0.135999
     13 H                     0.132818
     14 H                     0.159629
  ----------------------------------------
  Sum of atomic charges =     0.000000

                    Cartesian Multipole Moments
 -----------------------------------------------------------------
    Charge (ESU x 10^10)
                 0.0000
    Dipole Moment (Debye)
         X       0.6174      Y      -0.6502      Z      -0.0554
       Tot       0.8984
    Quadrupole Moments (Debye-Ang)
        XX     -45.4853     XY       0.8431     YY     -41.2809
        XZ       0.0414     YZ      -0.3935     ZZ     -47.3153

 Total job time:  9.05s(wall), 9.00s(cpu)
        *  Thank you very much for using Q-Chem.  Have a nice day.  *
