 Q-Chem 5.2, Q-Chem, Inc., Pleasanton, CA (2019)
 Q-Chem 5.2.1 for Intel X86 EM64T Linux

User input:
--------------------------------------------------------------
$molecule
0 1
C         3.85230400910000    2.51297126290000   -0.01811473370000
C         3.52795478160000    1.22620738450000    0.06503218530000
C         2.18388093790000    0.71315300610000    0.00369786280000
C         0.96276827820000    1.32108851420000   -0.14310862790000
C        -0.00701148630000    0.28877993950000   -0.13232895380000
C        -1.44437275140000    0.54160051790000   -0.26461904680000
O        -1.91942026790000    1.64657273320000   -0.37234948860000
O        -2.17895215370000   -0.58396550170000   -0.26593008230000
C        -3.59316504200000   -0.42397746870000   -0.37468898810000
C        -4.22606244670000   -0.12018255640000    0.97585866240000
C         0.69780241590000   -0.90024421450000    0.02395150710000
C         0.24807083270000   -2.26392111710000    0.10727227960000
C         1.06905802720000   -3.30228810120000    0.25380179560000
O         2.01195093370000   -0.62852641340000    0.10421283350000
H         4.87648818660000    2.83649870900000    0.03418219600000
H         3.10709818720000    3.27913787530000   -0.14049966620000
H         4.29029847690000    0.46876471110000    0.18804748680000
H         0.75501600440000    2.36505742760000   -0.24792235120000
H        -3.95511695440000   -1.37315730820000   -0.77599405730000
H        -3.80499014770000    0.38542368440000   -1.08113300860000
H        -3.97565106060000   -0.89818006300000    1.69336229360000
H        -5.30574426890000   -0.06811252070000    0.86871304660000
H        -3.86226981400000    0.83443399710000    1.34775393330000
H        -0.82067551220000   -2.39275479630000    0.04073652870000
H         2.13583583360000   -3.17019567000000    0.31819495430000
H         0.69680579820000   -4.30958268730000    0.31258598340000
$end

$rem
BASIS = 6-31G*
GUI = 2
METHOD = B3LYP
PRINT_ORBITALS false
MOLDEN_FORMAT false
--------------------------------------------------------------

             Standard Nuclear Orientation (Angstroms)
    I     Atom           X                Y                Z
 ----------------------------------------------------------------
    1      C       4.2896438320    -1.7333187541    -0.1502744795
    2      C       3.7252978343    -0.5294124816    -0.1496482867
    3      C       2.3094789115    -0.2869064715    -0.0488077956
    4      C       1.2288559907    -1.1244514901     0.0653250230
    5      C       0.0805383598    -0.2973979256     0.1253167430
    6      C      -1.2800926369    -0.8273866917     0.2486922628
    7      O      -1.5345787303    -2.0071774663     0.2883173062
    8      O      -2.2150447016     0.1351503797     0.3254679393
    9      C      -3.5709988709    -0.2980265462     0.4311505092
   10      C      -4.1577974818    -0.6333035382    -0.9326992475
   11      C       0.5437608321     1.0115511661     0.0414008657
   12      C      -0.1582826852     2.2669054787     0.0474002234
   13      C       0.4477759943     3.4498129052    -0.0369784675
   14      O       1.8840170366     1.0009417469    -0.0628081421
   15      H       5.3555901681    -1.8517141811    -0.2283714590
   16      H       3.7058320905    -2.6336086839    -0.0730542787
   17      H       4.3275795336     0.3656381299    -0.2281418234
   18      H       1.2251114694    -2.1933136814     0.1045373985
   19      H      -4.0997621487     0.5381736310     0.8939420096
   20      H      -3.6129549006    -1.1748631648     1.0857194452
   21      H      -4.0721869411     0.2208067277    -1.6005045577
   22      H      -5.2059023284    -0.8968447062    -0.8234903100
   23      H      -3.6256876588    -1.4762880342    -1.3664966796
   24      H      -1.2307295347     2.1851815598     0.1275427766
   25      H       1.5189466346     3.5278369187    -0.1151800674
   26      H      -0.1100657032     4.3692842964    -0.0295833825
 ----------------------------------------------------------------

    9    -652.0294436235      6.60e-06  Convergence criterion met
 Total energy in the final basis set =     -652.0294436235

                    Orbital Energies (a.u.)
 --------------------------------------------------------------

 Alpha MOs
 -- Occupied --
-19.2268 -19.1909 -19.1310 -10.3159 -10.2579 -10.2488 -10.2425 -10.2023
-10.2011 -10.1975 -10.1903 -10.1884 -10.1880 -10.1796  -1.1326  -1.1069
 -1.0158  -0.8258  -0.8227  -0.7843  -0.7711  -0.7213  -0.6794  -0.6364
 -0.6210  -0.5825  -0.5753  -0.5523  -0.5140  -0.4907  -0.4818  -0.4747
 -0.4695  -0.4593  -0.4463  -0.4332  -0.4301  -0.4095  -0.4047  -0.3905
 -0.3851  -0.3774  -0.3665  -0.3622  -0.3391  -0.3264  -0.2993  -0.2960
 -0.2748  -0.2741  -0.2028

          Ground-State Mulliken Net Atomic Charges

     Atom                 Charge (a.u.)
  ----------------------------------------
      1 C                    -0.342606
      2 C                    -0.124239
      3 C                     0.335307
      4 C                    -0.219247
      5 C                    -0.003541
      6 C                     0.588998
      7 O                    -0.492565
      8 O                    -0.475858
      9 C                    -0.044722
     10 C                    -0.464600
     11 C                     0.294687
     12 C                    -0.111050
     13 C                    -0.346545
     14 O                    -0.489125
     15 H                     0.151198
     16 H                     0.149800
     17 H                     0.145844
     18 H                     0.162789
     19 H                     0.149925
     20 H                     0.169747
     21 H                     0.155818
     22 H                     0.151566
     23 H                     0.180058
     24 H                     0.169954
     25 H                     0.159435
     26 H                     0.148970
  ----------------------------------------
  Sum of atomic charges =     0.000000

                    Cartesian Multipole Moments
 -----------------------------------------------------------------
    Charge (ESU x 10^10)
                 0.0000
    Dipole Moment (Debye)
         X      -0.2264      Y       1.4484      Z      -0.1564
       Tot       1.4743
    Quadrupole Moments (Debye-Ang)
        XX     -66.6430     XY      -4.6002     YY     -80.7334
        XZ      -0.7681     YZ       0.4327     ZZ     -83.5078

 Total job time:  39.27s(wall), 39.15s(cpu)
        *  Thank you very much for using Q-Chem.  Have a nice day.  *
