 Q-Chem 5.2, Q-Chem, Inc., Pleasanton, CA (2019)
 Q-Chem 5.2.1 for Intel X86 EM64T Linux

User input:
--------------------------------------------------------------
$molecule
0 1
C         4.35112657510000    0.17724232650000   -0.01298766740000
C         3.20704918340000    0.84941075000000   -0.06534217060000
C         1.90121154790000    0.20755897730000   -0.01300354130000
C         0.72957756900000    0.96729762380000   -0.05975790170000
C        -0.50396139900000    0.33475604630000    0.00058584180000
C        -1.71550626930000    1.21313408500000    0.05793235440000
O        -1.87978736160000    2.15282904990000   -0.66654359890000
O        -2.59020280290000    0.93200808200000    1.04331802670000
C        -0.54696280990000   -1.06744563520000    0.05978098600000
C        -1.77013573700000   -1.86027084780000   -0.00617349640000
C        -2.85657220640000   -1.52131638220000   -0.69042502140000
C         0.69059934610000   -1.72150826300000    0.12124953830000
N         1.85587859240000   -1.12233970850000    0.09410554370000
H         5.30567791560000    0.67235629160000   -0.05554034480000
H         4.34834745880000   -0.89561225440000    0.07414304740000
H         3.19303962930000    1.92732124650000   -0.15372070710000
H         0.76883561200000    2.04402641740000   -0.12328905920000
H        -2.36244299370000    0.12322511510000    1.52109704680000
H        -1.71913354870000   -2.82225225060000    0.48916099500000
H        -2.92450843600000   -0.59805761000000   -1.24233423090000
H        -3.71563244310000   -2.16787389010000   -0.73671494800000
H         0.72419727710000   -2.80237031890000    0.18563613510000
$end

$rem
BASIS = 6-31G*
GUI = 2
METHOD = B3LYP
PRINT_ORBITALS false
MOLDEN_FORMAT false
--------------------------------------------------------------

             Standard Nuclear Orientation (Angstroms)
    I     Atom           X                Y                Z
 ----------------------------------------------------------------
    1      C       4.3359785627     0.0711122779    -0.0196450891
    2      C       3.2125418470     0.7773814996    -0.0700255819
    3      C       1.8880849934     0.1750578632    -0.0157555112
    4      C       0.7397453778     0.9696845185    -0.0604720355
    5      C      -0.5121530311     0.3744914167     0.0016902152
    6      C      -1.6966543267     1.2888748174     0.0611650112
    7      O      -1.8337614284     2.2332831787    -0.6628341608
    8      O      -2.5778444746     1.0338967061     1.0478771600
    9      C      -0.5971909127    -1.0258003246     0.0606337472
   10      C      -1.8437460700    -1.7814813739    -0.0035551348
   11      C      -2.9205850264    -1.4098338166    -0.6859995915
   12      C       0.6202468930    -1.7167845304     0.1199836472
   13      N       1.8029659093    -1.1529066934     0.0911221085
   14      H       5.3049129157     0.5373211261    -0.0636037045
   15      H       4.3010890528    -1.0011979615     0.0672451246
   16      H       3.2308002972     1.8552503690    -0.1581357462
   17      H       0.8112511167     2.0447641788    -0.1238198869
   18      H      -2.3737429489     0.2185011257     1.5251085767
   19      H      -1.8208993578    -2.7446977975     0.4914780459
   20      H      -2.9616116936    -0.4847978894    -1.2375893062
   21      H      -3.7987645899    -2.0302636459    -0.7310699770
   22      H       0.6214412239    -2.7981858177     0.1840700584
 ----------------------------------------------------------------

    9    -591.6392061852      6.55e-06  Convergence criterion met
 Total energy in the final basis set =     -591.6392061852

                    Orbital Energies (a.u.)
 --------------------------------------------------------------

 Alpha MOs
 -- Occupied --
-19.1988 -19.1423 -14.3392 -10.3284 -10.2399 -10.2365 -10.2303 -10.2241
-10.2145 -10.2118 -10.2045 -10.1955 -10.1884  -1.1104  -1.0296  -0.9659
 -0.8507  -0.8154  -0.7898  -0.7420  -0.6862  -0.6536  -0.6294  -0.5987
 -0.5958  -0.5351  -0.5231  -0.4941  -0.4813  -0.4631  -0.4518  -0.4487
 -0.4389  -0.4311  -0.4195  -0.4108  -0.3897  -0.3756  -0.3620  -0.3428
 -0.3214  -0.3042  -0.2901  -0.2797  -0.2631  -0.2350

          Ground-State Mulliken Net Atomic Charges

     Atom                 Charge (a.u.)
  ----------------------------------------
      1 C                    -0.329440
      2 C                    -0.105716
      3 C                     0.319462
      4 C                    -0.211972
      5 C                     0.030734
      6 C                     0.519051
      7 O                    -0.434681
      8 O                    -0.557102
      9 C                     0.092345
     10 C                    -0.182014
     11 C                    -0.329206
     12 C                    -0.009376
     13 N                    -0.474128
     14 H                     0.148024
     15 H                     0.174043
     16 H                     0.134283
     17 H                     0.165158
     18 H                     0.417704
     19 H                     0.146769
     20 H                     0.180637
     21 H                     0.160022
     22 H                     0.145403
  ----------------------------------------
  Sum of atomic charges =     0.000000

                    Cartesian Multipole Moments
 -----------------------------------------------------------------
    Charge (ESU x 10^10)
                 0.0000
    Dipole Moment (Debye)
         X       0.4877      Y      -2.6537      Z       1.4148
       Tot       3.0466
    Quadrupole Moments (Debye-Ang)
        XX     -72.5706     XY      13.4444     YY     -75.9790
        XZ      -1.8363     YZ       0.4156     ZZ     -74.9466

 Total job time:  30.81s(wall), 30.71s(cpu)
        *  Thank you very much for using Q-Chem.  Have a nice day.  *
