 Q-Chem 5.2, Q-Chem, Inc., Pleasanton, CA (2019)
 Q-Chem 5.2.1 for Intel X86 EM64T Linux

User input:
--------------------------------------------------------------
$molecule
0 1
C         1.03171800770000   -3.38996587010000   -0.33106219030000
C         1.08496310600000   -2.25270374850000   -1.01144722890000
C         0.51407570690000   -0.98422092110000   -0.56198730130000
C        -0.66708429460000   -0.98026444650000    0.17613208280000
C        -1.26992892960000    0.18262886700000    0.62317552740000
C        -2.57582561680000    0.10712188720000    1.36238534840000
C        -3.74593533070000    0.62310312370000    0.51428288550000
C        -3.95783913650000   -0.16383827170000   -0.77915794150000
C        -4.36156848380000   -1.62839105450000   -0.59332901430000
C        -5.64677122950000   -1.85281586230000    0.20498585420000
C        -6.87518639850000   -1.22599670370000   -0.44370877350000
C        -0.66502210360000    1.41022068690000    0.31801028010000
C        -1.23123626790000    2.67874686780000    0.77330265590000
C        -1.17290768470000    3.81927436450000    0.09883690990000
C         0.51684625290000    1.40649603630000   -0.41921286200000
C         1.11662906260000    0.24329347840000   -0.87003271710000
C         2.42121231740000    0.31965416700000   -1.61145656580000
C         3.59455621050000   -0.19025414330000   -0.76438313760000
C         3.81546790390000    0.67231633920000    0.47533241580000
C         4.86105783400000    0.09814455450000    1.43195830390000
C         6.27113355110000   -0.02550764360000    0.85172982630000
C         6.87531948140000    1.31427787990000    0.44798773870000
H         1.45894470750000   -4.30057200550000   -0.71580126720000
H         0.57952719220000   -3.45274791230000    0.64481653550000
H         1.58363204340000   -2.23512526120000   -1.97228455350000
H        -1.13906687590000   -1.92852545220000    0.38997883390000
H        -2.52164834160000    0.70241261840000    2.27797922880000
H        -2.76694232480000   -0.92587084400000    1.65638300170000
H        -3.55139822830000    1.66501577980000    0.24867672950000
H        -4.65642653870000    0.60134958710000    1.11571216600000
H        -3.03079408310000   -0.13746947470000   -1.35762660670000
H        -4.72286867220000    0.34427103350000   -1.36956893300000
H        -3.54901685630000   -2.16710473580000   -0.10302671210000
H        -4.48612915880000   -2.07049679350000   -1.58536950760000
H        -5.52956377880000   -1.46018602290000    1.21659460560000
H        -5.80637098530000   -2.93070878730000    0.29345909950000
H        -6.80170434250000   -0.14163961550000   -0.45374996570000
H        -7.77342997630000   -1.49901294820000    0.10609574450000
H        -6.98233732240000   -1.57355925980000   -1.46917174390000
H        -1.72887006180000    2.65899345290000    1.73471259200000
H        -0.72070051910000    3.88478467060000   -0.87676860800000
H        -1.59526809990000    4.72992553550000    0.48880738440000
H         0.99548206400000    2.35278621870000   -0.62771801830000
H         2.61353871290000    1.35669932880000   -1.89572223350000
H         2.36438590810000   -0.26991575420000   -2.53028184920000
H         4.49424884950000   -0.19024433460000   -1.38247503160000
H         3.39537553720000   -1.21863457990000   -0.45504513930000
H         2.86918751540000    0.75322306040000    1.01628309010000
H         4.10407022530000    1.68039758670000    0.17226466680000
H         4.53026211350000   -0.89257921900000    1.75450682990000
H         4.90417028230000    0.73507238530000    2.31928950110000
H         6.25839649420000   -0.69454573330000   -0.01025507920000
H         6.90994825810000   -0.48581423530000    1.60983144140000
H         6.33158645690000    1.75392943890000   -0.38401528240000
H         7.91142878530000    1.18455498540000    0.14278923940000
H         6.84874896410000    2.01057772610000    1.28364366300000
$end

$rem
BASIS = 6-31G*
GUI = 2
METHOD = B3LYP
PRINT_ORBITALS false
MOLDEN_FORMAT false
--------------------------------------------------------------

             Standard Nuclear Orientation (Angstroms)
    I     Atom           X                Y                Z
 ----------------------------------------------------------------
    1      C       0.6678795676     3.4810131400    -0.2372843562
    2      C       0.8156500213     2.4875008376     0.6288687321
    3      C       0.3914231807     1.1080361149     0.3963090644
    4      C      -0.7596067655     0.8541606226    -0.3457503168
    5      C      -1.2264556210    -0.4248143087    -0.5944783312
    6      C      -2.5095832360    -0.6142133931    -1.3529044195
    7      C      -3.6467925534    -1.1000364173    -0.4443879781
    8      C      -3.9780511852    -0.1323530628     0.6918451846
    9      C      -4.5230978242     1.2285066831     0.2520389285
   10      C      -5.7990008021     1.1772081513    -0.5898988796
   11      C      -6.9766653226     0.5428427175     0.1404418481
   12      C      -0.5092696557    -1.5119858498    -0.0751305633
   13      C      -0.9286638529    -2.8919860529    -0.3133662572
   14      C      -0.7753214433    -3.8891622503     0.5475837841
   15      C       0.6425161668    -1.2584143019     0.6660951348
   16      C       1.1061715037     0.0211790460     0.9184495361
   17      C       2.3880113176     0.2099775051     1.6791857455
   18      C       3.5290238516     0.6903664614     0.7727682826
   19      C       3.8752811445    -0.3413720981    -0.2974400610
   20      C       4.8861245369     0.1699141625    -1.3244973261
   21      C       6.2574707304     0.5385671711    -0.7554867310
   22      C       6.9823153953    -0.6419227300    -0.1197844691
   23      H       0.9877901400     4.4836447563    -0.0089481746
   24      H       0.2422565037     3.3294255031    -1.2153557246
   25      H       1.2833430134     2.6857538539     1.5849791250
   26      H      -1.3189745880     1.6971586581    -0.7254329162
   27      H      -2.3664704693    -1.3468186208    -2.1519205031
   28      H      -2.7958352721     0.3279644285    -1.8223667964
   29      H      -3.3553454331    -2.0554000453    -0.0013166391
   30      H      -4.5355777640    -1.2769266266    -1.0526275188
   31      H      -3.0716206492     0.0378789514     1.2784784481
   32      H      -4.7052687674    -0.6112244183     1.3505311555
   33      H      -3.7548691900     1.7593471615    -0.3126575185
   34      H      -4.7229459807     1.8165075086     1.1517238346
   35      H      -5.6109018248     0.6335950178    -1.5174502685
   36      H      -6.0648970962     2.2015191030    -0.8641961453
   37      H      -6.7932932941    -0.5101977379     0.3374475115
   38      H      -7.8805134261     0.6221926657    -0.4599135418
   39      H      -7.1505990318     1.0457065398     1.0895100203
   40      H      -1.3955316512    -3.0880953469    -1.2704003523
   41      H      -0.3493952868    -3.7402924616     1.5258545762
   42      H      -1.0902259714    -4.8922087870     0.3141664966
   43      H       1.2084645663    -2.0996815299     1.0402656967
   44      H       2.6761826469    -0.7376910186     2.1397731247
   45      H       2.2427475055     0.9372439336     2.4823319346
   46      H       4.4043349456     0.8902410536     1.3935460772
   47      H       3.2357021433     1.6245738137     0.2888795984
   48      H       2.9595003784    -0.6124020022    -0.8289553315
   49      H       4.2556387963    -1.2472865407     0.1779715937
   50      H       4.4661916476     1.0510563223    -1.8166780025
   51      H       5.0216030410    -0.5998749489    -2.0886718462
   52      H       6.1497079519     1.3387428404    -0.0213898319
   53      H       6.8692927413     0.9288450176    -1.5728247739
   54      H       6.4606238993    -0.9893844469     0.7680648767
   55      H       7.9897748571    -0.3534724083     0.1723088169
   56      H       7.0529559922    -1.4685130779    -0.8237863121
 ----------------------------------------------------------------

    8    -858.7998348190      3.80e-06  Convergence criterion met
 Total energy in the final basis set =     -858.7998348190

                    Orbital Energies (a.u.)
 --------------------------------------------------------------

 Alpha MOs
 -- Occupied --
-10.1876 -10.1874 -10.1869 -10.1868 -10.1849 -10.1848 -10.1798 -10.1792
-10.1777 -10.1775 -10.1769 -10.1769 -10.1716 -10.1715 -10.1714 -10.1698
-10.1682 -10.1674 -10.1659 -10.1656 -10.1651 -10.1646  -0.8694  -0.8208
 -0.8030  -0.8009  -0.7815  -0.7702  -0.7583  -0.7354  -0.7113  -0.7083
 -0.6864  -0.6533  -0.6364  -0.6344  -0.6054  -0.5922  -0.5780  -0.5715
 -0.5488  -0.5399  -0.5252  -0.4955  -0.4883  -0.4706  -0.4635  -0.4614
 -0.4528  -0.4517  -0.4430  -0.4379  -0.4229  -0.4219  -0.4159  -0.4128
 -0.4099  -0.4003  -0.3960  -0.3852  -0.3812  -0.3805  -0.3726  -0.3596
 -0.3594  -0.3545  -0.3504  -0.3442  -0.3430  -0.3412  -0.3320  -0.3311
 -0.3236  -0.3130  -0.3121  -0.3066  -0.3060  -0.3024  -0.3003  -0.2916
 -0.2618  -0.2348  -0.2102

          Ground-State Mulliken Net Atomic Charges

     Atom                 Charge (a.u.)
  ----------------------------------------
      1 C                    -0.340426
      2 C                    -0.134298
      3 C                     0.121435
      4 C                    -0.268202
      5 C                     0.128564
      6 C                    -0.356234
      7 C                    -0.268052
      8 C                    -0.262663
      9 C                    -0.256151
     10 C                    -0.253215
     11 C                    -0.444165
     12 C                     0.119825
     13 C                    -0.133408
     14 C                    -0.340440
     15 C                    -0.263553
     16 C                     0.125908
     17 C                    -0.353366
     18 C                    -0.264124
     19 C                    -0.259645
     20 C                    -0.252585
     21 C                    -0.250933
     22 C                    -0.443969
     23 H                     0.141302
     24 H                     0.144088
     25 H                     0.135644
     26 H                     0.125301
     27 H                     0.140549
     28 H                     0.143269
     29 H                     0.146524
     30 H                     0.132004
     31 H                     0.144080
     32 H                     0.130942
     33 H                     0.129980
     34 H                     0.127101
     35 H                     0.133046
     36 H                     0.129100
     37 H                     0.147966
     38 H                     0.140919
     39 H                     0.141709
     40 H                     0.135672
     41 H                     0.144085
     42 H                     0.141164
     43 H                     0.122660
     44 H                     0.138287
     45 H                     0.140124
     46 H                     0.132428
     47 H                     0.147054
     48 H                     0.145118
     49 H                     0.126891
     50 H                     0.128291
     51 H                     0.124298
     52 H                     0.134133
     53 H                     0.128633
     54 H                     0.144994
     55 H                     0.140872
     56 H                     0.141466
  ----------------------------------------
  Sum of atomic charges =     0.000000

                    Cartesian Multipole Moments
 -----------------------------------------------------------------
    Charge (ESU x 10^10)
                -0.0000
    Dipole Moment (Debye)
         X      -0.0093      Y       0.0367      Z      -0.0014
       Tot       0.0379
    Quadrupole Moments (Debye-Ang)
        XX    -139.1124     XY       1.1533     YY    -133.8137
        XZ       4.3214     YZ       0.0873     ZZ    -136.7655

 Total job time:  129.63s(wall), 129.26s(cpu)
        *  Thank you very much for using Q-Chem.  Have a nice day.  *
