 Q-Chem 5.2, Q-Chem, Inc., Pleasanton, CA (2019)
 Q-Chem 5.2.1 for Intel X86 EM64T Linux

User input:
--------------------------------------------------------------
$molecule
0 1
C        -5.17248356980000   -1.35221077860000   -0.02465762460000
C        -3.85131775100000   -1.39056896340000    0.09611691020000
C        -2.93782745170000   -0.25423709670000    0.04101473650000
C        -3.37415787800000    1.07050152150000   -0.01722713810000
C        -2.45905685370000    2.10563698270000   -0.06906139310000
C        -1.10096224520000    1.85178558060000   -0.06736447640000
C        -0.62934193710000    0.53728871660000   -0.00872743880000
C         0.77893937220000    0.18954974000000   -0.00249086920000
C         1.80823209710000    1.04337259120000   -0.12488860760000
C         3.20836998980000    0.69675600520000   -0.12218843900000
C         3.75621071730000   -0.50619960470000    0.01125138800000
F         3.13609714730000   -1.66969831630000    0.17399422960000
F         5.07213228030000   -0.71512638760000   -0.00087659600000
C        -1.56671296010000   -0.49511972950000    0.05011546810000
H        -5.76464035490000   -2.24978258210000    0.02603896910000
H        -5.71877597440000   -0.43815148710000   -0.18259747940000
H        -3.36655934810000   -2.34853263140000    0.24118019980000
H        -4.42923819880000    1.29430793220000   -0.01414210450000
H        -2.81044526200000    3.12665395130000   -0.10988083900000
H        -0.40914704240000    2.67848594120000   -0.10455021910000
H         0.97790278960000   -0.86735679400000    0.10545392940000
H         1.62159878980000    2.10062988030000   -0.24307421580000
H         3.91454623020000    1.50518955450000   -0.24231219610000
H        -1.21435178160000   -1.51666157400000    0.09819781760000
$end

$rem
BASIS = 6-31G*
GUI = 2
METHOD = B3LYP
PRINT_ORBITALS false
MOLDEN_FORMAT false
--------------------------------------------------------------

             Standard Nuclear Orientation (Angstroms)
    I     Atom           X                Y                Z
 ----------------------------------------------------------------
    1      C       4.9955401973     1.5520558829    -0.1078470659
    2      C       3.6738396157     1.5509518985     0.0131624919
    3      C       2.8005962228     0.3821478475     0.0228555318
    4      C       3.2829305422    -0.9277586999     0.0372501393
    5      C       2.4045428569    -1.9954586137     0.0446031136
    6      C       1.0384105167    -1.7894204783     0.0348514295
    7      C       0.5211655610    -0.4909424986     0.0214867466
    8      C      -0.8984021429    -0.1927169183     0.0111632674
    9      C      -1.8972439674    -1.0873872167    -0.0617630504
   10      C      -3.3086339885    -0.7901936503    -0.0755710064
   11      C      -3.8981577121     0.3984708217    -0.0079218987
   12      F      -3.3190619070     1.5901188046     0.0889205369
   13      F      -5.2205735137     0.5603851944    -0.0290697611
   14      C       1.4219048395     0.5752014003     0.0212398084
   15      H       5.5559854277     2.4711619858    -0.1080929594
   16      H       5.5734263930     0.6502554824    -0.2159597847
   17      H       3.1559165335     2.4979946048     0.1058676689
   18      H       4.3451840419    -1.1141186347     0.0506958535
   19      H       2.7913786386    -3.0042920492     0.0597315055
   20      H       0.3758921997    -2.6405338566     0.0448533012
   21      H      -1.1341600825     0.8609655769     0.0607751197
   22      H      -1.6737962691    -2.1424173779    -0.1215567779
   23      H      -3.9861418246    -1.6281776261    -0.1493639027
   24      H       1.0340784815     1.5849272529     0.0133359508
 ----------------------------------------------------------------

    9    -662.9167918319      6.59e-06  Convergence criterion met
 Total energy in the final basis set =     -662.9167918319

                    Orbital Energies (a.u.)
 --------------------------------------------------------------

 Alpha MOs
 -- Occupied --
-24.7452 -24.7353 -10.3569 -10.2040 -10.1992 -10.1963 -10.1949 -10.1901
-10.1900 -10.1887 -10.1871 -10.1867 -10.1864 -10.1799  -1.2856  -1.2251
 -0.8680  -0.8268  -0.7961  -0.7711  -0.7352  -0.7166  -0.6538  -0.6291
 -0.6058  -0.5959  -0.5748  -0.5492  -0.5192  -0.5171  -0.5013  -0.4744
 -0.4690  -0.4561  -0.4416  -0.4402  -0.4312  -0.4198  -0.4127  -0.3996
 -0.3837  -0.3813  -0.3618  -0.3462  -0.3363  -0.3341  -0.3006  -0.2694
 -0.2288  -0.2037

          Ground-State Mulliken Net Atomic Charges

     Atom                 Charge (a.u.)
  ----------------------------------------
      1 C                    -0.354207
      2 C                    -0.108377
      3 C                     0.179640
      4 C                    -0.181590
      5 C                    -0.130844
      6 C                    -0.179268
      7 C                     0.189362
      8 C                    -0.191448
      9 C                    -0.122225
     10 C                    -0.243235
     11 C                     0.552193
     12 F                    -0.233951
     13 F                    -0.248120
     14 C                    -0.281703
     15 H                     0.144718
     16 H                     0.142956
     17 H                     0.127519
     18 H                     0.126480
     19 H                     0.129442
     20 H                     0.125723
     21 H                     0.136280
     22 H                     0.134317
     23 H                     0.158970
     24 H                     0.127370
  ----------------------------------------
  Sum of atomic charges =     0.000000

                    Cartesian Multipole Moments
 -----------------------------------------------------------------
    Charge (ESU x 10^10)
                -0.0000
    Dipole Moment (Debye)
         X       0.4494      Y      -1.0052      Z      -0.0529
       Tot       1.1024
    Quadrupole Moments (Debye-Ang)
        XX     -76.4825     XY       3.2381     YY     -71.8289
        XZ       0.0519     YZ       0.2719     ZZ     -83.6379

 Total job time:  33.50s(wall), 33.39s(cpu)
        *  Thank you very much for using Q-Chem.  Have a nice day.  *
