 Q-Chem 5.2, Q-Chem, Inc., Pleasanton, CA (2019)
 Q-Chem 5.2.1 for Intel X86 EM64T Linux

User input:
--------------------------------------------------------------
$molecule
0 1
F         6.79302042190000   -3.25894884740000   -0.08943213850000
C         5.58564048610000   -2.71827366730000    0.08521503440000
F         4.83172627740000   -3.56898454280000    0.77506623620000
C         5.25466735080000   -1.52190688820000   -0.38012274910000
C         3.98912229480000   -0.82290534990000   -0.26335418840000
C         3.87056207820000    0.43785934870000   -0.85667150830000
C         2.69842746800000    1.15535224270000   -0.78723954130000
C         1.58975286430000    0.63703571980000   -0.11229440120000
N         0.40153850890000    1.35621788220000   -0.03743826070000
C        -0.83041161160000    0.68854054250000   -0.02724208080000
C        -1.87588115830000    1.14608604740000    0.77388523370000
C        -3.09179631630000    0.49565174740000    0.77273420720000
C        -3.30147477220000   -0.63615781790000   -0.01349956630000
C        -4.59541172790000   -1.33118349690000   -0.00608073160000
C        -5.78888527790000   -0.61243255540000    0.01549815650000
C        -7.00588798840000   -1.26776056060000    0.01920857830000
C        -7.05228462710000   -2.65176625610000    0.00624478620000
C        -5.87249615080000   -3.37670197710000   -0.01256614230000
C        -4.65454185870000   -2.72323754350000   -0.02102739610000
C        -2.25016746430000   -1.09045343200000   -0.80830739150000
C        -1.03583275590000   -0.43746921990000   -0.82376929670000
C         0.42297868940000    2.75660989180000    0.02892866550000
C         1.39398317350000    3.41502745390000    0.78221434620000
C         1.40727554940000    4.79495749930000    0.84450662370000
C         0.45290346220000    5.53717932860000    0.16821928430000
C        -0.51758767300000    4.88691219870000   -0.57622712660000
C        -0.53448780990000    3.50764755090000   -0.65132566120000
C         1.70323270220000   -0.62140993600000    0.48527874920000
C         2.87722545040000   -1.33677821490000    0.41014101880000
H         6.03982836350000   -1.00935881290000   -0.91750327510000
H         4.71338292690000    0.85372283590000   -1.38933316620000
H         2.62697911310000    2.12214052220000   -1.26307256870000
H        -1.72417502270000    2.01267161580000    1.40079407330000
H        -3.88363005730000    0.85242606370000    1.41473942130000
H        -5.76008863960000    0.46761152760000    0.00783052860000
H        -7.92306257210000   -0.69670378960000    0.03001260600000
H        -8.00354954710000   -3.16307189300000    0.01096116960000
H        -5.90225205250000   -4.45671815900000   -0.01840058100000
H        -3.73784167910000   -3.29498797010000   -0.01792943050000
H        -2.39733093120000   -1.94949661370000   -1.44612542400000
H        -0.23741087830000   -0.79143025570000   -1.45958774390000
H         2.13148070650000    2.83729682260000    1.32002675810000
H         2.16314466060000    5.29352879710000    1.43317060920000
H         0.46484332780000    6.61509892100000    0.22196076710000
H        -1.26309657280000    5.45793648460000   -1.10967983990000
H        -1.28677422780000    3.00186734020000   -1.23874786490000
H         0.85926191970000   -1.03078520250000    1.02023718530000
H         2.92926574540000   -2.30005343570000    0.89011695510000
$end

$rem
BASIS = 6-31G*
GUI = 2
METHOD = B3LYP
PRINT_ORBITALS false
MOLDEN_FORMAT false
--------------------------------------------------------------

             Standard Nuclear Orientation (Angstroms)
    I     Atom           X                Y                Z
 ----------------------------------------------------------------
    1      F      -6.7637386743    -3.5187669728     0.0628154899
    2      C      -5.5737968230    -2.9395954006    -0.1080536862
    3      F      -4.7921611843    -3.7638796790    -0.7991336128
    4      C      -5.2816614137    -1.7347855024     0.3614843327
    5      C      -4.0386952105    -0.9957039591     0.2490751421
    6      C      -3.9611201957     0.2663512406     0.8464095394
    7      C      -2.8121825303     1.0208112067     0.7812267493
    8      C      -1.6865172832     0.5399409427     0.1066869969
    9      N      -0.5215523598     1.2966151907     0.0361137107
   10      C       0.7309412144     0.6683179779     0.0260862282
   11      C       1.7627383140     1.1612025437    -0.7717978399
   12      C       2.9986398427     0.5495969666    -0.7704545328
   13      C       3.2427390214    -0.5774191641     0.0127259864
   14      C       4.5580497391    -1.2310965510     0.0055031955
   15      C       5.7281954572    -0.4748506976    -0.0117851346
   16      C       6.9653471391    -1.0912981061    -0.0153161055
   17      C       7.0555316995    -2.4731738820    -0.0064528053
   18      C       5.8992646948    -3.2351595177     0.0080731792
   19      C       4.6612129585    -2.6206194879     0.0163476319
   20      C       2.2050147751    -1.0672208975     0.8042900649
   21      C       0.9705842622    -0.4530677692     0.8195700989
   22      C      -0.5872223673     2.6958235695    -0.0260585794
   23      C      -1.5773270145     3.3254779189    -0.7790731203
   24      C      -1.6342121010     4.7044801618    -0.8372181661
   25      C      -0.7049620892     5.4744664021    -0.1569979845
   26      C       0.2843861683     4.8529693009     0.5872010621
   27      C       0.3448346351     3.4747069580     0.6581607005
   28      C      -1.7590807795    -0.7196224188    -0.4948871794
   29      C      -2.9099525126    -1.4720352409    -0.4239955377
   30      H      -6.0835622604    -1.2490131573     0.8990170627
   31      H      -4.8175818426     0.6536766130     1.3788288929
   32      H      -2.7721879475     1.9879084556     1.2601055014
   33      H       1.5847148510     2.0244744566    -1.3963530760
   34      H       3.7798532259     0.9332401578    -1.4099721891
   35      H       5.6651942255     0.6037111771    -0.0009045410
   36      H       7.8639924452    -0.4914540541    -0.0227663871
   37      H       8.0225196119    -2.9540835502    -0.0110261039
   38      H       5.9632011642    -4.3137046740     0.0106963561
   39      H       3.7630871173    -3.2210990469     0.0098947512
   40      H       2.3782406708    -1.9231316560     1.4397691592
   41      H       0.1827073396    -0.8340886870     1.4528978358
   42      H      -2.2952535878     2.7263410524    -1.3199371831
   43      H      -2.4045033637     5.1806750868    -1.4257132843
   44      H      -0.7509446849     6.5516275957    -0.2075026272
   45      H       1.0105397922     5.4456703181     1.1236994038
   46      H       1.1117754053     2.9911971412     1.2453858989
   47      H      -0.9016714120    -1.1004193744    -1.0295816473
   48      H      -2.9306531088    -2.4349938893    -0.9069721102
 ----------------------------------------------------------------

    9   -1256.6187968354      4.40e-06  Convergence criterion met
 Total energy in the final basis set =    -1256.6187968354

                    Orbital Energies (a.u.)
 --------------------------------------------------------------

 Alpha MOs
 -- Occupied --
-24.7399 -24.7291 -14.3691 -10.3506 -10.2287 -10.2280 -10.2277 -10.1997
-10.1993 -10.1924 -10.1911 -10.1902 -10.1890 -10.1889 -10.1880 -10.1879
-10.1874 -10.1865 -10.1863 -10.1861 -10.1860 -10.1859 -10.1857 -10.1851
-10.1850 -10.1839 -10.1837 -10.1836 -10.1835  -1.2798  -1.2192  -0.9825
 -0.8718  -0.8659  -0.8556  -0.8432  -0.8033  -0.7795  -0.7605  -0.7535
 -0.7503  -0.7463  -0.7428  -0.7332  -0.7037  -0.6493  -0.6393  -0.6244
 -0.6154  -0.6120  -0.6057  -0.5933  -0.5891  -0.5721  -0.5669  -0.5426
 -0.5393  -0.5291  -0.5169  -0.5139  -0.4950  -0.4772  -0.4771  -0.4659
 -0.4594  -0.4516  -0.4461  -0.4424  -0.4419  -0.4363  -0.4337  -0.4327
 -0.4274  -0.4258  -0.4251  -0.4190  -0.4178  -0.4073  -0.3848  -0.3834
 -0.3770  -0.3746  -0.3716  -0.3656  -0.3601  -0.3528  -0.3473  -0.3437
 -0.3375  -0.3362  -0.3240  -0.2913  -0.2707  -0.2617  -0.2526  -0.2514
 -0.2502  -0.2405  -0.2254  -0.1774

          Ground-State Mulliken Net Atomic Charges

     Atom                 Charge (a.u.)
  ----------------------------------------
      1 F                    -0.251981
      2 C                     0.536784
      3 F                    -0.237950
      4 C                    -0.298694
      5 C                     0.198698
      6 C                    -0.205807
      7 C                    -0.176483
      8 C                     0.298612
      9 N                    -0.652620
     10 C                     0.284511
     11 C                    -0.172603
     12 C                    -0.185133
     13 C                     0.092359
     14 C                     0.088112
     15 C                    -0.171808
     16 C                    -0.132931
     17 C                    -0.125047
     18 C                    -0.133104
     19 C                    -0.171447
     20 C                    -0.185794
     21 C                    -0.172912
     22 C                     0.277077
     23 C                    -0.165715
     24 C                    -0.138358
     25 C                    -0.127369
     26 C                    -0.138276
     27 C                    -0.164851
     28 C                    -0.176322
     29 C                    -0.205694
     30 H                     0.156929
     31 H                     0.129036
     32 H                     0.149456
     33 H                     0.148024
     34 H                     0.134742
     35 H                     0.128856
     36 H                     0.127800
     37 H                     0.126731
     38 H                     0.128098
     39 H                     0.129422
     40 H                     0.135093
     41 H                     0.148292
     42 H                     0.147309
     43 H                     0.131101
     44 H                     0.126078
     45 H                     0.131015
     46 H                     0.146870
     47 H                     0.149794
     48 H                     0.140100
  ----------------------------------------
  Sum of atomic charges =     0.000000

                    Cartesian Multipole Moments
 -----------------------------------------------------------------
    Charge (ESU x 10^10)
                 0.0000
    Dipole Moment (Debye)
         X       0.7705      Y       1.4739      Z       0.3262
       Tot       1.6949
    Quadrupole Moments (Debye-Ang)
        XX    -157.5462     XY      -7.6479     YY    -155.0296
        XZ      -1.9228     YZ      -1.3230     ZZ    -165.6712

 Total job time:  162.70s(wall), 162.26s(cpu)
        *  Thank you very much for using Q-Chem.  Have a nice day.  *
