 Q-Chem 5.2, Q-Chem, Inc., Pleasanton, CA (2019)
 Q-Chem 5.2.1 for Intel X86 EM64T Linux

User input:
--------------------------------------------------------------
$molecule
0 1
C        -1.83622077810000    3.20675123390000   -0.07744530420000
C        -2.37756290480000    2.00289930610000    0.06186251980000
C        -1.67254052810000    0.72532386970000    0.03865935190000
C        -2.42368530240000   -0.45093256790000    0.01795282460000
C        -1.77159304300000   -1.66714296230000   -0.00858208270000
F        -2.50399756970000   -2.80008285290000   -0.03124817630000
C        -0.39548041120000   -1.76650490340000   -0.01013506440000
C         0.36740218300000   -0.59648816410000    0.01543522080000
C         1.81600046880000   -0.73706279290000    0.01685198670000
C         2.73721238930000    0.21492745050000   -0.00175569450000
F         2.55578350200000    1.52906543590000   -0.02727542190000
F         4.04277879540000   -0.03860022140000   -0.00119447600000
C        -0.28179850680000    0.63533684660000    0.04098557840000
H        -2.44247844480000    4.09564574980000   -0.05069301730000
H        -0.78178246040000    3.36125848440000   -0.22844161870000
H        -3.44900019790000    1.92038124380000    0.19470174030000
H        -3.50225531480000   -0.42354105480000    0.01863234620000
H         0.07068210680000   -2.73871611400000   -0.02940206650000
H         2.20147894910000   -1.74607913630000    0.03010153400000
H         0.29668764560000    1.54168061880000    0.07260549920000
$end

$rem
BASIS = 6-31G*
GUI = 2
METHOD = B3LYP
PRINT_ORBITALS false
MOLDEN_FORMAT false
--------------------------------------------------------------

             Standard Nuclear Orientation (Angstroms)
    I     Atom           X                Y                Z
 ----------------------------------------------------------------
    1      C      -1.3930824384    -3.3535754854     0.0753443914
    2      C      -2.0713117388    -2.2208517594    -0.0612550547
    3      C      -1.5200066444    -0.8698259903    -0.0370476490
    4      C      -2.4031284464     0.2108042494    -0.0133705026
    5      C      -1.8972327339     1.4947078227     0.0141482553
    6      F      -2.7566888283     2.5344990761     0.0396886018
    7      C      -0.5420877119     1.7538276059     0.0138487153
    8      C       0.3519564316     0.6807698548    -0.0146993924
    9      C       1.7742830516     0.9892763539    -0.0180089590
   10      C       2.8002302347     0.1511549275    -0.0022633579
   11      F       2.7732897815    -1.1752082351     0.0214287311
   12      F       4.0673332820     0.5551671041    -0.0043285138
   13      C      -0.1492453871    -0.6183061019    -0.0412626932
   14      H      -1.8916167624    -4.3070516154     0.0480625111
   15      H      -0.3275756568    -3.3843075052     0.2245535886
   16      H      -3.1452789483    -2.2636254129    -0.1923969998
   17      H      -3.4711495541     0.0578525758    -0.0125176591
   18      H      -0.1924187498     2.7737293600     0.0339827086
   19      H       2.0394741316     2.0363713332    -0.0302149357
   20      H       0.5309097224    -1.4509791038    -0.0751711045
 ----------------------------------------------------------------

    9    -684.7490607696      6.34e-06  Convergence criterion met
 Total energy in the final basis set =     -684.7490607696

                    Orbital Energies (a.u.)
 --------------------------------------------------------------

 Alpha MOs
 -- Occupied --
-24.7510 -24.7405 -24.7050 -10.3640 -10.2732 -10.2177 -10.2093 -10.2076
-10.1973 -10.1969 -10.1950 -10.1907 -10.1870  -1.2926  -1.2313  -1.2171
 -0.8805  -0.8224  -0.7931  -0.7472  -0.7364  -0.6567  -0.6421  -0.6175
 -0.5857  -0.5680  -0.5443  -0.5257  -0.5138  -0.5022  -0.4839  -0.4701
 -0.4601  -0.4473  -0.4446  -0.4383  -0.4295  -0.4187  -0.3977  -0.3823
 -0.3750  -0.3677  -0.3491  -0.3256  -0.2821  -0.2335  -0.2283

          Ground-State Mulliken Net Atomic Charges

     Atom                 Charge (a.u.)
  ----------------------------------------
      1 C                    -0.348268
      2 C                    -0.115078
      3 C                     0.182284
      4 C                    -0.274824
      5 C                     0.390322
      6 F                    -0.299322
      7 C                    -0.273047
      8 C                     0.202235
      9 C                    -0.300131
     10 C                     0.550717
     11 F                    -0.231353
     12 F                    -0.244997
     13 C                    -0.258094
     14 H                     0.148536
     15 H                     0.150119
     16 H                     0.132103
     17 H                     0.143440
     18 H                     0.143254
     19 H                     0.163651
     20 H                     0.138453
  ----------------------------------------
  Sum of atomic charges =     0.000000

                    Cartesian Multipole Moments
 -----------------------------------------------------------------
    Charge (ESU x 10^10)
                 0.0000
    Dipole Moment (Debye)
         X       0.0898      Y      -0.5526      Z      -0.0307
       Tot       0.5607
    Quadrupole Moments (Debye-Ang)
        XX     -72.4927     XY       5.6231     YY     -67.9552
        XZ       0.3560     YZ      -0.0745     ZZ     -74.2196

 Total job time:  26.22s(wall), 26.12s(cpu)
        *  Thank you very much for using Q-Chem.  Have a nice day.  *
