 Q-Chem 5.4, Q-Chem, Inc., Pleasanton, CA (2021)
 Q-Chem 5.4.2 for Intel X86 EM64T Linux

User input:
--------------------------------------------------------------
$molecule
0 1
C           -3.62525760320000       -2.20999639460000        0.00235343570000
C           -3.47272992220000       -0.89194068500000        0.00065131640000
C           -2.20963400070000       -0.16081725630000       -0.00023172140000
C           -0.95715402350000       -0.77433812100000        0.00102400370000
C            0.19769853910000        0.00634414480000        0.00039214900000
C            1.48788293080000       -0.66796924420000        0.00232273520000
C            2.69451845660000       -0.12133080890000        0.00071321700000
F            3.00671046360000        1.16633152990000       -0.00330737540000
F            3.81510372270000       -0.83702086960000        0.00299823890000
C            0.04160618480000        1.39470814940000       -0.00174409740000
C           -1.24547036420000        1.90827893300000       -0.00301599940000
N           -2.33481525160000        1.16771379890000       -0.00221346770000
H           -4.60412829130000       -2.65767131410000        0.00307113300000
H           -2.79592767300000       -2.89715726170000        0.00300209390000
H           -4.33672624580000       -0.24174494480000       -0.00003423710000
H           -0.87609450230000       -1.84973320870000        0.00257421890000
H            1.46852137610000       -1.74832607200000        0.00551758750000
H            0.88750910870000        2.06035560060000       -0.00226965680000
H           -1.41102388180000        2.97792295060000       -0.00464921830000
$end

$rem
BASIS = 6-31G*
GUI = 2
METHOD = B3LYP
PRINT_ORBITALS false
MOLDEN_FORMAT false
$end
--------------------------------------------------------------

             Standard Nuclear Orientation (Angstroms)
    I     Atom           X                Y                Z
 ----------------------------------------------------------------
    1      C       3.7619262042    -1.7309311601     0.0006831043
    2      C       3.4475180908    -0.4418672686     0.0001672486
    3      C       2.1036794933     0.1273878308     0.0000654225
    4      C       0.9367164988    -0.6363614005     0.0001177481
    5      C      -0.3058409201    -0.0045382529    -0.0003423946
    6      C      -1.5026982847    -0.8332783967    -0.0008533119
    7      C      -2.7676881839    -0.4401052087     0.0000744728
    8      F      -3.2367743725     0.7990513179     0.0019622172
    9      F      -3.7911305751    -1.2889242742    -0.0007555778
   10      C      -0.3226971459     1.3924727681    -0.0006084066
   11      C       0.8909611502     2.0613196373    -0.0004811598
   12      N       2.0635513201     1.4612014122    -0.0002465250
   13      H       4.7886583297    -2.0540755401     0.0005256586
   14      H       3.0239727216    -2.5154072802     0.0013800601
   15      H       4.2244445142     0.3102162276    -0.0004369375
   16      H       0.9893129388    -1.7135248825     0.0004199686
   17      H      -1.3498383110    -1.9029456090    -0.0022081717
   18      H      -1.2444474623     1.9483636996    -0.0010428407
   19      H       0.9229211402     3.1432288140    -0.0007081579
 ----------------------------------------------------------------

    9    -601.5543811075      7.22e-06  Convergence criterion met
 Total energy in the final basis set =     -601.5543811075

                    Orbital Energies (a.u.)
 --------------------------------------------------------------

 Alpha MOs
 -- Occupied --
-24.7569 -24.7466 -14.3223 -10.3718 -10.2278 -10.2251 -10.2194 -10.2147
-10.1989 -10.1957 -10.1894 -10.1866  -1.2990  -1.2374  -0.9498  -0.8458
 -0.8021  -0.7768  -0.7413  -0.6640  -0.6526  -0.6216  -0.5860  -0.5813
 -0.5319  -0.5288  -0.5092  -0.4931  -0.4647  -0.4557  -0.4529  -0.4426
 -0.4336  -0.4182  -0.4113  -0.4101  -0.3726  -0.3557  -0.3360  -0.3016
 -0.2531  -0.2463  -0.2365

          Ground-State Mulliken Net Atomic Charges

     Atom                 Charge (a.u.)
  ----------------------------------------
      1 C                    -0.347404
      2 C                    -0.088017
      3 C                     0.296853
      4 C                    -0.237310
      5 C                     0.214893
      6 C                    -0.292797
      7 C                     0.554191
      8 F                    -0.228234
      9 F                    -0.241629
     10 C                    -0.209054
     11 C                     0.042462
     12 N                    -0.484024
     13 H                     0.150614
     14 H                     0.141883
     15 H                     0.147034
     16 H                     0.131851
     17 H                     0.164977
     18 H                     0.143864
     19 H                     0.139848
  ----------------------------------------
  Sum of atomic charges =     0.000000

                    Cartesian Multipole Moments
 -----------------------------------------------------------------
    Charge (ESU x 10^10)
                 0.0000
    Dipole Moment (Debye)
         X      -0.8536      Y      -1.4361      Z      -0.0009
       Tot       1.6707
    Quadrupole Moments (Debye-Ang)
        XX     -69.6040     XY      -5.1607     YY     -62.4839
        XZ       0.0019     YZ      -0.0020     ZZ     -69.1767

 Total job time:  46.04s(wall), 36.76s(cpu)
        *  Thank you very much for using Q-Chem.  Have a nice day.  *
