 Q-Chem 5.2, Q-Chem, Inc., Pleasanton, CA (2019)
 Q-Chem 5.2.1 for Intel X86 EM64T Linux

User input:
--------------------------------------------------------------
$molecule
0 1
C        -2.62236269430000    3.42997338970000   -0.01263329980000
C        -3.08849204680000    2.18782639850000    0.00030573860000
C        -2.23569720970000    1.02200315000000    0.00196742510000
N        -2.74262948500000   -0.24255649560000    0.00927373390000
C        -1.69671427690000   -1.02820086690000    0.00357672070000
C        -1.71610250000000   -2.46834165170000    0.01186775300000
C        -2.85884377080000   -3.14732396150000    0.02484221520000
N        -0.55321018920000   -0.24560209550000   -0.00571905200000
C         0.79980295370000   -0.62203069140000   -0.01742044460000
O         1.14522252970000   -1.77298553900000   -0.06314335460000
O         1.55067210710000    0.45294937860000    0.02815753970000
C         3.00115937250000    0.35680567530000    0.01069809470000
C         3.46251929310000   -0.28976811460000   -1.29396647320000
C         3.45985518140000    1.81174650170000    0.08843167950000
C         3.49033163830000   -0.43165357360000    1.22399754780000
N        -0.92063973270000    1.05069903040000   -0.00552924570000
H        -3.27971877640000    4.28222924310000   -0.01467779890000
H        -1.56248495100000    3.61804856420000   -0.02157176350000
H        -4.14573542570000    1.96564402660000    0.00906378110000
H        -0.75433479360000   -2.95724331780000    0.00653654370000
H        -3.80399776530000   -2.63183099530000    0.02858737090000
H        -2.87457118670000   -4.22310330000000    0.03189698610000
H         3.05724843900000    0.25479902400000   -2.14410086270000
H         3.12978973230000   -1.32302109720000   -1.34636274770000
H         4.54723412880000   -0.26793399830000   -1.34712455040000
H         3.06582070720000    2.37034948520000   -0.75587188600000
H         4.54444169090000    1.86129072890000    0.07524026660000
H         3.09227875520000    2.26832855650000    1.00313817170000
H         3.16428814550000   -1.46653380700000    1.16452874050000
H         3.09953065180000    0.00911328840000    2.13861493370000
H         4.57579568380000   -0.40763624570000    1.25836866370000
$end

$rem
BASIS = 6-31G*
GUI = 2
METHOD = B3LYP
PRINT_ORBITALS false
MOLDEN_FORMAT false
--------------------------------------------------------------

             Standard Nuclear Orientation (Angstroms)
    I     Atom           X                Y                Z
 ----------------------------------------------------------------
    1      C      -2.6548615003    -3.4426562180     0.0109522257
    2      C      -3.1333839508    -2.2052245269    -0.0013852752
    3      C      -2.2922861667    -1.0309335848    -0.0023564774
    4      N      -2.8118340777     0.2284987986    -0.0090535567
    5      C      -1.7738256528     1.0245566631    -0.0028452463
    6      C      -1.8076090479     2.4644357946    -0.0103880145
    7      C      -2.9570797135     3.1319670696    -0.0231203119
    8      N      -0.6225560278     0.2534236637     0.0061544638
    9      C       0.7266253089     0.6433531277     0.0181839639
   10      O       1.0605174481     1.7976795450     0.0645400954
   11      O       1.4882075891    -0.4240429877    -0.0278806883
   12      C       2.9376596182    -0.3134129454    -0.0102296225
   13      C       3.3924122525     0.3370597563     1.2948165770
   14      C       3.4108845453    -1.7636548049    -0.0886762996
   15      C       3.4190373834     0.4805301143    -1.2230704697
   16      N      -0.9770082321    -1.0464855400     0.0052535723
   17      H      -3.3036650255    -4.3014419092     0.0124886462
   18      H      -1.5931573853    -3.6201312210     0.0198961478
   19      H      -4.1927948150    -1.9936177943    -0.0101307529
   20      H      -0.8507773862     2.9629248054    -0.0047082897
   21      H      -3.8970328102     2.6070533478    -0.0272262133
   22      H      -2.9835601229     4.2075389627    -0.0296162538
   23      H       2.9925270932    -0.2119751519     2.1446276399
   24      H       3.0493651793     1.3669073854     1.3477185865
   25      H       4.4772862431     0.3260426984     1.3480691234
   26      H       3.0223760575    -2.3266094838     0.7552977256
   27      H       4.4959109223    -1.8023610119    -0.0754048583
   28      H       3.0479753743    -2.2234112495    -1.0036563616
   29      H       3.0826591234     1.5120680615    -1.1630944283
   30      H       3.0327467020     0.0363558517    -2.1379554538
   31      H       4.5046904568     0.4673831202    -1.2573481682
 ----------------------------------------------------------------

    9    -742.8784528269      7.38e-06  Convergence criterion met
 Total energy in the final basis set =     -742.8784528269

                    Orbital Energies (a.u.)
 --------------------------------------------------------------

 Alpha MOs
 -- Occupied --
-19.2039 -19.1519 -14.4325 -14.3527 -14.3233 -10.3649 -10.2664 -10.2664
-10.2413 -10.1972 -10.1923 -10.1920 -10.1845 -10.1830 -10.1806 -10.1803
 -1.1424  -1.0800  -1.0459  -0.9163  -0.8605  -0.8247  -0.7824  -0.7704
 -0.7064  -0.7034  -0.6974  -0.6486  -0.6296  -0.5853  -0.5697  -0.5473
 -0.5217  -0.5110  -0.4857  -0.4796  -0.4677  -0.4663  -0.4560  -0.4381
 -0.4379  -0.4271  -0.4181  -0.4038  -0.3960  -0.3773  -0.3770  -0.3735
 -0.3635  -0.3617  -0.3464  -0.3327  -0.3289  -0.3209  -0.3106  -0.2931
 -0.2719  -0.2632  -0.2295

          Ground-State Mulliken Net Atomic Charges

     Atom                 Charge (a.u.)
  ----------------------------------------
      1 C                    -0.335166
      2 C                    -0.090748
      3 C                     0.439354
      4 N                    -0.550058
      5 C                     0.520278
      6 C                    -0.118323
      7 C                    -0.327293
      8 N                    -0.432265
      9 C                     0.834186
     10 O                    -0.486917
     11 O                    -0.459575
     12 C                     0.294717
     13 C                    -0.470502
     14 C                    -0.449467
     15 C                    -0.470372
     16 N                    -0.336083
     17 H                     0.147020
     18 H                     0.169774
     19 H                     0.148159
     20 H                     0.186135
     21 H                     0.178793
     22 H                     0.152711
     23 H                     0.155330
     24 H                     0.185192
     25 H                     0.150447
     26 H                     0.162501
     27 H                     0.149592
     28 H                     0.161707
     29 H                     0.186467
     30 H                     0.154348
     31 H                     0.150060
  ----------------------------------------
  Sum of atomic charges =     0.000000

                    Cartesian Multipole Moments
 -----------------------------------------------------------------
    Charge (ESU x 10^10)
                 0.0000
    Dipole Moment (Debye)
         X       2.1124      Y      -0.3490      Z      -0.0481
       Tot       2.1416
    Quadrupole Moments (Debye-Ang)
        XX     -84.4475     XY      -2.1641     YY     -89.1659
        XZ      -0.0405     YZ      -0.2746     ZZ     -94.5237

 Total job time:  52.07s(wall), 51.92s(cpu)
        *  Thank you very much for using Q-Chem.  Have a nice day.  *
