 Q-Chem 5.2, Q-Chem, Inc., Pleasanton, CA (2019)
 Q-Chem 5.2.1 for Intel X86 EM64T Linux

User input:
--------------------------------------------------------------
$molecule
0 1
C        -4.71556754250000   -2.03980237800000    0.10098072080000
C        -4.57576457860000   -0.72681959940000   -0.03348851460000
C        -3.32490840900000    0.02443593960000   -0.02701841450000
C        -3.37676380030000    1.41989515960000   -0.03096471660000
C        -2.21416400680000    2.16884883220000   -0.02008666140000
C        -0.98027085150000    1.54916214920000   -0.01063311260000
C        -0.89221554770000    0.15338304110000   -0.01293447800000
C         0.37008047850000   -0.55970713580000   -0.00901108810000
C         1.59939742810000   -0.02140344470000   -0.00121616480000
C         2.79416650670000   -0.82123127090000    0.00205024800000
C         4.01997648770000   -0.31003265060000    0.01029030750000
F         4.32152675730000    0.98495936940000    0.01660157340000
F         5.13946691030000   -1.02812598490000    0.01333856160000
C        -2.07483333800000   -0.58689189350000   -0.02089244200000
H        -5.68738542560000   -2.50255529650000    0.08720035990000
H        -3.88102212580000   -2.70636453930000    0.23550141570000
H        -5.46287125370000   -0.11606575870000   -0.15104002480000
H        -4.33645616250000    1.91664580330000   -0.03867161190000
H        -2.27170764030000    3.24765119510000   -0.02064157440000
H        -0.08485200180000    2.15007712810000   -0.00389745880000
H         0.28580538050000   -1.64006525750000   -0.01301064430000
H         1.74618573600000    1.04828252100000    0.00302682300000
H         2.70543996970000   -1.89662702520000   -0.00245047330000
H        -2.00932307620000   -1.66457889160000   -0.02968155830000
$end

$rem
BASIS = 6-31G*
GUI = 2
METHOD = B3LYP
PRINT_ORBITALS false
MOLDEN_FORMAT false
--------------------------------------------------------------

             Standard Nuclear Orientation (Angstroms)
    I     Atom           X                Y                Z
 ----------------------------------------------------------------
    1      C       4.5622245026    -2.0587284616    -0.0709741650
    2      C       4.4305988849    -0.7428561068     0.0417434618
    3      C       3.1843632779     0.0158564190     0.0238543881
    4      C       3.2447711506     1.4108432931     0.0045282494
    5      C       2.0867718469     2.1666388957    -0.0178063732
    6      C       0.8490965918     1.5544710238    -0.0158743321
    7      C       0.7524935977     0.1594906086     0.0097353167
    8      C      -0.5141508841    -0.5457995964     0.0187760429
    9      C      -1.7401536760    -0.0001597591     0.0030881646
   10      C      -2.9398032940    -0.7925777915     0.0141709476
   11      C      -4.1624656827    -0.2740677080    -0.0015138912
   12      F      -4.4560821518     1.0224677284    -0.0291175224
   13      F      -5.2863371133    -0.9852228406     0.0083613101
   14      C       1.9305608558    -0.5877991601     0.0289884431
   15      H       5.5312018645    -2.5271482473    -0.0503359406
   16      H       3.7234809038    -2.7222982456    -0.1936579129
   17      H       5.3215443613    -0.1356910489     0.1483437206
   18      H       4.2074959946     1.9017495556     0.0031337620
   19      H       2.1509244828     3.2449273569    -0.0352577185
   20      H      -0.0426298926     2.1606791071    -0.0318347268
   21      H      -0.4364926348    -1.6264388472     0.0406841605
   22      H      -1.8803895543     1.0701889231    -0.0188315164
   23      H      -2.8576628024    -1.8682744576     0.0364937043
   24      H       1.8584576340    -1.6647680252     0.0557708622
 ----------------------------------------------------------------

    9    -662.9211586001      7.12e-06  Convergence criterion met
 Total energy in the final basis set =     -662.9211586001

                    Orbital Energies (a.u.)
 --------------------------------------------------------------

 Alpha MOs
 -- Occupied --
-24.7413 -24.7372 -10.3567 -10.2040 -10.2000 -10.1981 -10.1957 -10.1931
-10.1909 -10.1890 -10.1880 -10.1874 -10.1872 -10.1808  -1.2843  -1.2251
 -0.8690  -0.8291  -0.7972  -0.7743  -0.7327  -0.7220  -0.6484  -0.6306
 -0.6123  -0.5858  -0.5719  -0.5395  -0.5364  -0.5185  -0.5072  -0.4807
 -0.4617  -0.4521  -0.4411  -0.4398  -0.4296  -0.4193  -0.4159  -0.4057
 -0.3846  -0.3749  -0.3729  -0.3430  -0.3409  -0.3360  -0.3015  -0.2708
 -0.2284  -0.2051

          Ground-State Mulliken Net Atomic Charges

     Atom                 Charge (a.u.)
  ----------------------------------------
      1 C                    -0.350596
      2 C                    -0.114851
      3 C                     0.179719
      4 C                    -0.195395
      5 C                    -0.128710
      6 C                    -0.181280
      7 C                     0.187430
      8 C                    -0.195760
      9 C                    -0.109590
     10 C                    -0.226304
     11 C                     0.532475
     12 F                    -0.238294
     13 F                    -0.245028
     14 C                    -0.263702
     15 H                     0.144707
     16 H                     0.142839
     17 H                     0.127305
     18 H                     0.127635
     19 H                     0.130509
     20 H                     0.128481
     21 H                     0.122466
     22 H                     0.142190
     23 H                     0.159016
     24 H                     0.124739
  ----------------------------------------
  Sum of atomic charges =     0.000000

                    Cartesian Multipole Moments
 -----------------------------------------------------------------
    Charge (ESU x 10^10)
                 0.0000
    Dipole Moment (Debye)
         X       0.9401      Y      -0.2200      Z       0.0115
       Tot       0.9656
    Quadrupole Moments (Debye-Ang)
        XX     -79.7459     XY       1.4228     YY     -71.7889
        XZ       0.1606     YZ       0.0651     ZZ     -83.6532

 Total job time:  32.74s(wall), 32.62s(cpu)
        *  Thank you very much for using Q-Chem.  Have a nice day.  *
