 Q-Chem 5.2, Q-Chem, Inc., Pleasanton, CA (2019)
 Q-Chem 5.2.1 for Intel X86 EM64T Linux

User input:
--------------------------------------------------------------
$molecule
0 1
C         3.29883896890000   -2.37520232270000    0.03540080260000
C         2.77971415050000   -1.15059581080000   -0.02619885950000
C         1.37003191650000   -0.87812124040000    0.02815710320000
S         0.19717842970000   -2.14868162510000    0.12200479220000
C        -1.14892222100000   -1.04314592250000    0.07533257770000
C        -2.47426352770000   -1.60827270890000    0.17567290640000
C        -3.61425034190000   -1.03573345220000   -0.20214042860000
C        -0.69084288290000    0.24958200020000   -0.00139253060000
N        -1.52446657630000    1.43224794220000    0.12541018090000
O        -2.36990098540000    1.62237971430000   -0.71014747970000
O        -1.31880271160000    2.10222952290000    1.10709569940000
C         0.72801945960000    0.34687340180000   -0.02597329000000
N         1.37847174960000    1.60769041650000   -0.21113551970000
O         2.53495541230000    1.71622003420000    0.12993673810000
O         0.71494714150000    2.47844785450000   -0.73173858650000
H         4.36130481690000   -2.53284107370000   -0.00591595680000
H         2.67864754910000   -3.25202061250000    0.13483242420000
H         3.41677568570000   -0.28073473620000   -0.10661414640000
H        -2.48348276590000   -2.61715436670000    0.56907089720000
H        -3.66211664740000   -0.05758519310000   -0.64818958810000
H        -4.54797510310000   -1.55693628230000   -0.08224127440000
$end

$rem
BASIS = 6-31G*
GUI = 2
METHOD = B3LYP
PRINT_ORBITALS false
MOLDEN_FORMAT false
--------------------------------------------------------------

             Standard Nuclear Orientation (Angstroms)
    I     Atom           X                Y                Z
 ----------------------------------------------------------------
    1      C       3.7702789289    -1.4533329598    -0.0425839608
    2      C       2.9669652519    -0.3915702213    -0.0597078571
    3      C       1.5338497447    -0.4745198129     0.0011219973
    4      S       0.7080825354    -1.9960180682     0.0443418610
    5      C      -0.8678377026    -1.2525315859     0.0355270094
    6      C      -2.0139772809    -2.1280896042     0.1112123388
    7      C      -3.2618613408    -1.8383712395    -0.2479014251
    8      C      -0.7404220335     0.1149103151     0.0083829684
    9      N      -1.8371653525     1.0521301003     0.1771410404
   10      O      -2.7089391884     1.0602965655    -0.6529250551
   11      O      -1.7951444900     1.7153852687     1.1837224974
   12      C       0.6113392027     0.5572732630    -0.0088437548
   13      N       0.9323668800     1.9448699318    -0.1450402767
   14      O       2.0293992575     2.3204297115     0.2028652273
   15      O       0.0725627272     2.6453872944    -0.6344513700
   16      H       4.8387298692    -1.3445628763    -0.0869955096
   17      H       3.3840902178    -2.4583068718     0.0223781329
   18      H       3.3713389822     0.6100894211    -0.1058831119
   19      H      -1.7735173830    -3.1223608196     0.4665895478
   20      H      -3.5505018284    -0.8859039162    -0.6571907110
   21      H      -4.0389061885    -2.5762657186    -0.1500077619
 ----------------------------------------------------------------

   10   -1116.7740973703      4.32e-06  Convergence criterion met
 Total energy in the final basis set =    -1116.7740973703

                    Orbital Energies (a.u.)
 --------------------------------------------------------------

 Alpha MOs
 -- Occupied --
-88.9534 -19.1982 -19.1957 -19.1927 -19.1926 -14.5917 -14.5904 -10.2785
-10.2768 -10.2765 -10.2740 -10.2294 -10.2265 -10.2186 -10.2105  -8.0151
 -5.9791  -5.9754  -5.9718  -1.2638  -1.2565  -1.0866  -1.0800  -0.9511
 -0.8545  -0.8464  -0.7997  -0.7951  -0.7174  -0.6959  -0.6616  -0.6145
 -0.5935  -0.5770  -0.5666  -0.5536  -0.5420  -0.5370  -0.5274  -0.5142
 -0.4913  -0.4853  -0.4564  -0.4405  -0.4354  -0.4082  -0.3978  -0.3889
 -0.3606  -0.3334  -0.3297  -0.3216  -0.3183  -0.3163  -0.3077  -0.3012
 -0.2877  -0.2442

          Ground-State Mulliken Net Atomic Charges

     Atom                 Charge (a.u.)
  ----------------------------------------
      1 C                    -0.361065
      2 C                    -0.053595
      3 C                    -0.180129
      4 S                     0.318771
      5 C                    -0.152995
      6 C                    -0.108584
      7 C                    -0.337515
      8 C                     0.275495
      9 N                     0.383306
     10 O                    -0.368564
     11 O                    -0.367303
     12 C                     0.309350
     13 N                     0.371656
     14 O                    -0.399403
     15 O                    -0.389692
     16 H                     0.171329
     17 H                     0.165689
     18 H                     0.201056
     19 H                     0.152287
     20 H                     0.209307
     21 H                     0.160601
  ----------------------------------------
  Sum of atomic charges =     0.000000

                    Cartesian Multipole Moments
 -----------------------------------------------------------------
    Charge (ESU x 10^10)
                -0.0000
    Dipole Moment (Debye)
         X       1.7713      Y      -6.0437      Z      -0.1298
       Tot       6.2992
    Quadrupole Moments (Debye-Ang)
        XX     -83.5597     XY       2.5640     YY     -95.0095
        XZ      -1.0157     YZ      -1.3654     ZZ     -94.5889

 Total job time:  44.74s(wall), 44.60s(cpu)
        *  Thank you very much for using Q-Chem.  Have a nice day.  *
