 Q-Chem 5.2, Q-Chem, Inc., Pleasanton, CA (2019)
 Q-Chem 5.2.1 for Intel X86 EM64T Linux

User input:
--------------------------------------------------------------
$molecule
0 1
C         4.78515431140000    0.26570465800000    0.24478422990000
C         3.55214716690000    0.75661572880000    0.19410709180000
C         2.32265288540000   -0.00420609300000    0.01768931980000
C         2.29153661210000   -1.38413919700000   -0.21176151360000
C         1.09850194520000   -2.05520537280000   -0.36788808130000
C        -0.13428651370000   -1.39527654110000   -0.28642172130000
C        -1.36909431770000   -2.16335941580000   -0.39988343850000
C        -2.43783181290000   -1.99846124730000    0.36502721030000
C        -0.08749009340000   -0.02088152170000   -0.08822974890000
S        -1.52048034300000    1.02205060480000   -0.12492605000000
O        -1.13379738720000    2.37885814660000   -0.29642964810000
O        -2.61417658410000    0.50976224930000   -0.87028824910000
F        -1.95882552260000    0.91546507930000    1.47029524730000
C         1.09820782560000    0.66445926890000    0.05593248360000
H         5.63543460520000    0.91088787910000    0.38150481180000
H         5.00190509210000   -0.78506632350000    0.15756646240000
H         3.40396884350000    1.82368296690000    0.29689664530000
H         3.21550161130000   -1.93705174180000   -0.27529140230000
H         1.10273044230000   -3.12135552880000   -0.54096750040000
H        -1.34294319580000   -2.95926005510000   -1.13367633250000
H        -2.48368525040000   -1.25998565610000    1.14338353770000
H        -3.30886039070000   -2.61857420410000    0.24309455470000
H         1.04918444970000    1.73377666720000    0.18748660800000
$end

$rem
BASIS = 6-31G*
GUI = 2
METHOD = B3LYP
PRINT_ORBITALS false
MOLDEN_FORMAT false
--------------------------------------------------------------

             Standard Nuclear Orientation (Angstroms)
    I     Atom           X                Y                Z
 ----------------------------------------------------------------
    1      C       4.7067525427     0.5081372130     0.1818400542
    2      C       3.4553927285     0.9450413562     0.0976862948
    3      C       2.2555159191     0.1250330218     0.0001607251
    4      C       2.2768720411    -1.2700897594    -0.1047564822
    5      C       1.1100413690    -1.9975571698    -0.1903974970
    6      C      -0.1470228191    -1.3805858857    -0.1580512978
    7      C      -1.3516240408    -2.2023803669    -0.1921819872
    8      C      -2.4222590470    -2.0105487425     0.5637418527
    9      C      -0.1526464313     0.0068224187    -0.0839014232
   10      S      -1.6251924138     0.9867298126    -0.2018205620
   11      O      -1.2922877154     2.3364855487    -0.4971133194
   12      O      -2.7017609327     0.3682617748    -0.8893328495
   13      F      -2.0513818185     1.0068943835     1.4001138747
   14      C       1.0062414909     0.7471435862    -0.0113917248
   15      H       5.5320020516     1.1950046202     0.2533026128
   16      H       4.9636967744    -0.5371662872     0.1871078620
   17      H       3.2664110646     2.0105803785     0.1059034203
   18      H       3.2212822104    -1.7907500313    -0.1262497851
   19      H       1.1548091545    -3.0739863364    -0.2675117978
   20      H      -1.2981394007    -3.0592712308    -0.8520843745
   21      H      -2.4929876660    -1.2075679601     1.2733238666
   22      H      -3.2691426887    -2.6719326401     0.5049381740
   23      H       0.9163901535     1.8212904164     0.0244524055
 ----------------------------------------------------------------

    9   -1034.8456506794      6.83e-06  Convergence criterion met
 Total energy in the final basis set =    -1034.8456506794

                    Orbital Energies (a.u.)
 --------------------------------------------------------------

 Alpha MOs
 -- Occupied --
-89.1457 -24.7180 -19.1682 -19.1677 -10.2459 -10.2349 -10.2239 -10.2221
-10.2193 -10.2174 -10.2090 -10.2034 -10.1989 -10.1941  -8.1706  -6.1370
 -6.1342  -6.1326  -1.2290  -1.1260  -1.0431  -0.9051  -0.8355  -0.8020
 -0.7861  -0.7432  -0.6977  -0.6524  -0.6322  -0.5963  -0.5901  -0.5394
 -0.5286  -0.5153  -0.5050  -0.4835  -0.4806  -0.4659  -0.4554  -0.4352
 -0.4336  -0.4305  -0.4108  -0.4063  -0.3943  -0.3852  -0.3721  -0.3625
 -0.3479  -0.3432  -0.3328  -0.3233  -0.2914  -0.2790  -0.2373

          Ground-State Mulliken Net Atomic Charges

     Atom                 Charge (a.u.)
  ----------------------------------------
      1 C                    -0.349121
      2 C                    -0.109899
      3 C                     0.181530
      4 C                    -0.167329
      5 C                    -0.173461
      6 C                     0.159955
      7 C                    -0.141264
      8 C                    -0.314980
      9 C                    -0.239035
     10 S                     1.222459
     11 O                    -0.464497
     12 O                    -0.455555
     13 F                    -0.330056
     14 C                    -0.228044
     15 H                     0.156140
     16 H                     0.147684
     17 H                     0.142287
     18 H                     0.144490
     19 H                     0.147347
     20 H                     0.145628
     21 H                     0.176356
     22 H                     0.156012
     23 H                     0.193354
  ----------------------------------------
  Sum of atomic charges =     0.000000

                    Cartesian Multipole Moments
 -----------------------------------------------------------------
    Charge (ESU x 10^10)
                 0.0000
    Dipole Moment (Debye)
         X       3.9849      Y      -3.1708      Z       0.5216
       Tot       5.1191
    Quadrupole Moments (Debye-Ang)
        XX     -82.5334     XY       5.2657     YY     -82.9776
        XZ      -2.5386     YZ       2.1690     ZZ     -90.5235

 Total job time:  38.88s(wall), 38.40s(cpu)
        *  Thank you very much for using Q-Chem.  Have a nice day.  *
