 Q-Chem 5.2, Q-Chem, Inc., Pleasanton, CA (2019)
 Q-Chem 5.2.1 for Intel X86 EM64T Linux

User input:
--------------------------------------------------------------
$molecule
0 1
C        -4.35866309220000   -0.74812571360000    0.27584053080000
C        -3.52026942100000    0.15890979400000   -0.20927578820000
C        -2.06804835700000    0.10682958060000   -0.07861226220000
C        -1.37580624540000   -1.08878063030000   -0.01883132470000
C         0.02003199670000   -1.13265534660000    0.07899736500000
C         0.73586594440000   -2.40182506690000    0.12691207140000
C         0.27895417780000   -3.54943490310000   -0.36027708900000
C         0.67602929820000    0.10766937260000    0.10217665170000
C         2.15904952860000    0.25030520650000    0.17741196780000
O         2.92435084680000   -0.52975641390000    0.69316443420000
O         2.55909679660000    1.38700878440000   -0.39711435670000
C         3.95206384840000    1.64770582610000   -0.34854538460000
N         0.02754532910000    1.26669090120000    0.05540445580000
C        -1.29256622200000    1.29325610290000   -0.02224192590000
N        -1.85674270610000    2.53551963290000   -0.07893619020000
H        -5.42289939350000   -0.66383791180000    0.13801142390000
H        -4.01685196870000   -1.59877768170000    0.84102221880000
H        -3.91010452450000    1.01165240260000   -0.75134490170000
H        -1.92862746320000   -2.01495107950000   -0.05290840620000
H         1.71568286540000   -2.36322373110000    0.57790324310000
H        -0.67368387310000   -3.63720923890000   -0.85672045830000
H         0.86050725770000   -4.45276544530000   -0.29463284250000
H         4.10451463600000    2.58721686910000   -0.87338400160000
H         4.50801528370000    0.84183789800000   -0.83371507520000
H         4.28877321310000    1.72738621170000    0.68757903940000
H        -1.22086218380000    3.29215985500000    0.11313229010000
H        -2.80671988570000    2.65191980390000    0.22693611330000
$end

$rem
BASIS = 6-31G*
GUI = 2
METHOD = B3LYP
PRINT_ORBITALS false
MOLDEN_FORMAT false
--------------------------------------------------------------

             Standard Nuclear Orientation (Angstroms)
    I     Atom           X                Y                Z
 ----------------------------------------------------------------
    1      C       4.3947003987    -0.2577785996    -0.2488249688
    2      C       3.4582504316     0.5624193987     0.2108400239
    3      C       2.0215034869     0.3465890130     0.0770237838
    4      C       1.4661956813    -0.9194548217     0.0450405458
    5      C       0.0843840393    -1.1200810045    -0.0559820363
    6      C      -0.4862987270    -2.4615317830    -0.0743349034
    7      C       0.0919564435    -3.5391613341     0.4428357501
    8      C      -0.7047054854     0.0389916136    -0.1122273546
    9      C      -2.1939356675     0.0145674103    -0.1956015753
   10      O      -2.8651748168    -0.8578902713    -0.6940375734
   11      O      -2.7206803167     1.1137047923     0.3490546723
   12      C      -4.1336340941     1.2172098252     0.2896624918
   13      N      -0.1887608335     1.2635162992    -0.0924685368
   14      C       1.1198243432     1.4380604543    -0.0114231713
   15      N       1.5427102834     2.7361931109     0.0159101457
   16      H       5.4422462583    -0.0527549465    -0.1098531189
   17      H       4.1524441612    -1.1546677634    -0.7935962039
   18      H       3.7481386381     1.4661389842     0.7326024476
   19      H       2.1179129608    -1.7775648499     0.1039982810
   20      H      -1.4617137031    -2.5427896195    -0.5291833258
   21      H       1.0455361572    -3.5086549370     0.9442683961
   22      H      -0.3856569966    -4.5026944570     0.3980189761
   23      H      -4.3921932095     2.1466387900     0.7903488205
   24      H      -4.5998120424     0.3668576617     0.7931245690
   25      H      -4.4710266328     1.2336576838    -0.7491694122
   26      H       0.8281317648     3.4127906568    -0.1970031397
   27      H       2.4757424596     2.9495797238    -0.2898358588
 ----------------------------------------------------------------

    9    -686.3142988056      6.13e-06  Convergence criterion met
 Total energy in the final basis set =     -686.3142988056

                    Orbital Energies (a.u.)
 --------------------------------------------------------------

 Alpha MOs
 -- Occupied --
-19.1837 -19.1300 -14.3501 -14.3204 -10.3077 -10.2617 -10.2326 -10.2291
-10.2038 -10.2022 -10.2010 -10.1977 -10.1914 -10.1788 -10.1729  -1.1043
 -1.0116  -0.9743  -0.9010  -0.8327  -0.8028  -0.7581  -0.7418  -0.7151
 -0.6615  -0.6380  -0.5879  -0.5770  -0.5559  -0.5457  -0.5328  -0.4912
 -0.4846  -0.4791  -0.4750  -0.4604  -0.4455  -0.4313  -0.4285  -0.4108
 -0.4072  -0.3963  -0.3868  -0.3726  -0.3508  -0.3447  -0.3331  -0.3164
 -0.2961  -0.2821  -0.2761  -0.2490  -0.2478  -0.2032

          Ground-State Mulliken Net Atomic Charges

     Atom                 Charge (a.u.)
  ----------------------------------------
      1 C                    -0.334667
      2 C                    -0.152045
      3 C                     0.150261
      4 C                    -0.230106
      5 C                     0.126994
      6 C                    -0.136896
      7 C                    -0.350497
      8 C                     0.161479
      9 C                     0.593274
     10 O                    -0.491111
     11 O                    -0.422983
     12 C                    -0.216900
     13 N                    -0.555122
     14 C                     0.424403
     15 N                    -0.776185
     16 H                     0.148243
     17 H                     0.151424
     18 H                     0.138250
     19 H                     0.140393
     20 H                     0.182302
     21 H                     0.136501
     22 H                     0.144043
     23 H                     0.163946
     24 H                     0.166301
     25 H                     0.165963
     26 H                     0.342067
     27 H                     0.330667
  ----------------------------------------
  Sum of atomic charges =     0.000000

                    Cartesian Multipole Moments
 -----------------------------------------------------------------
    Charge (ESU x 10^10)
                 0.0000
    Dipole Moment (Debye)
         X       2.3593      Y       2.0752      Z       0.0483
       Tot       3.1425
    Quadrupole Moments (Debye-Ang)
        XX     -73.0274     XY      -1.8552     YY     -77.8099
        XZ      -3.7101     YZ      -3.3991     ZZ     -89.5338

 Total job time:  43.95s(wall), 43.80s(cpu)
        *  Thank you very much for using Q-Chem.  Have a nice day.  *
