 Q-Chem 5.2, Q-Chem, Inc., Pleasanton, CA (2019)
 Q-Chem 5.2.1 for Intel X86 EM64T Linux

User input:
--------------------------------------------------------------
$molecule
0 1
C        -3.02417182130000    0.59700738570000   -0.39777388040000
C        -2.33911045730000   -0.34590811090000    0.23390844480000
C        -0.91006323300000   -0.58366573040000    0.12934117860000
N        -0.46933050720000   -1.83074787270000    0.17266578730000
N         0.86055910040000   -1.75955289540000    0.01861777890000
C         1.30111562420000   -0.48592877910000   -0.08514774860000
N         2.64051553380000   -0.19183712390000   -0.21579745800000
C         0.17487844560000    0.33430858070000   -0.01216146390000
C         0.11347611160000    1.77541562280000    0.02349121470000
C         1.13378178920000    2.60277212930000    0.23305048520000
H        -4.09065271730000    0.68716251060000   -0.27852194770000
H        -2.56251053900000    1.29820542390000   -1.07189533740000
H        -2.85547279450000   -1.06974876330000    0.85081467850000
H         1.41127251680000   -2.60291222190000    0.02914148570000
H         3.20564623000000   -0.95647924300000   -0.55711385550000
H         2.81926577130000    0.67572961560000   -0.69973185050000
H        -0.87565433650000    2.19225963570000   -0.09849421510000
H         2.13568854890000    2.26233294660000    0.42840723810000
H         0.98648524040000    3.66924295460000    0.25193113130000
$end

$rem
BASIS = 6-31G*
GUI = 2
METHOD = B3LYP
PRINT_ORBITALS false
MOLDEN_FORMAT false
--------------------------------------------------------------

             Standard Nuclear Orientation (Angstroms)
    I     Atom           X                Y                Z
 ----------------------------------------------------------------
    1      C       2.9979680649    -0.6806722880    -0.4027950677
    2      C       2.3557410522     0.2945013660     0.2249007781
    3      C       0.9369333936     0.5894111522     0.1266561143
    4      N       0.5475790621     1.8537241489     0.1620408240
    5      N      -0.7850296666     1.8355042273     0.0163428734
    6      C      -1.2776703260     0.5800774450    -0.0741253517
    7      N      -2.6287058458     0.3397320833    -0.1944935271
    8      C      -0.1853092811    -0.2847323363    -0.0007912102
    9      C      -0.1823715743    -1.7268046431     0.0466397767
   10      C      -1.2341836660    -2.5101703995     0.2690964422
   11      H       4.0606122289    -0.8132176880    -0.2889988940
   12      H       2.5040166804    -1.3679722009    -1.0682876872
   13      H       2.9049159499     1.0017281454     0.8326720087
   14      H      -1.3008992710     2.7006548584     0.0229690201
   15      H      -3.1643504578     1.1239432642    -0.5389421163
   16      H      -2.8455830843    -0.5237619026    -0.6700548700
   17      H       0.7882101504    -2.1845788899    -0.0775869285
   18      H      -2.2201874964    -2.1276144968     0.4674085214
   19      H      -1.1302855278    -3.5815660834     0.2961008631
 ----------------------------------------------------------------

    9    -436.3460490557      3.87e-06  Convergence criterion met
 Total energy in the final basis set =     -436.3460490557

                    Orbital Energies (a.u.)
 --------------------------------------------------------------

 Alpha MOs
 -- Occupied --
-14.4030 -14.3624 -14.3314 -10.2593 -10.1999 -10.1836 -10.1829 -10.1738
-10.1728 -10.1659  -1.0484  -0.9329  -0.8298  -0.7886  -0.7567  -0.7320
 -0.6288  -0.6252  -0.5700  -0.5587  -0.5306  -0.5005  -0.4837  -0.4528
 -0.4494  -0.4298  -0.4139  -0.4030  -0.3595  -0.3416  -0.3351  -0.3071
 -0.2767  -0.2749  -0.2161  -0.1926

          Ground-State Mulliken Net Atomic Charges

     Atom                 Charge (a.u.)
  ----------------------------------------
      1 C                    -0.348903
      2 C                    -0.091473
      3 C                     0.248294
      4 N                    -0.352303
      5 N                    -0.485803
      6 C                     0.501780
      7 N                    -0.794292
      8 C                    -0.011861
      9 C                    -0.097230
     10 C                    -0.392321
     11 H                     0.141662
     12 H                     0.145278
     13 H                     0.143368
     14 H                     0.333190
     15 H                     0.323306
     16 H                     0.339699
     17 H                     0.129883
     18 H                     0.131911
     19 H                     0.135816
  ----------------------------------------
  Sum of atomic charges =     0.000000

                    Cartesian Multipole Moments
 -----------------------------------------------------------------
    Charge (ESU x 10^10)
                -0.0000
    Dipole Moment (Debye)
         X      -3.0851      Y       0.5270      Z      -1.4283
       Tot       3.4403
    Quadrupole Moments (Debye-Ang)
        XX     -48.1433     XY      -8.2330     YY     -55.3719
        XZ       4.5247     YZ       0.5482     ZZ     -61.2153

 Total job time:  19.03s(wall), 18.95s(cpu)
        *  Thank you very much for using Q-Chem.  Have a nice day.  *
