 Q-Chem 5.2, Q-Chem, Inc., Pleasanton, CA (2019)
 Q-Chem 5.2.1 for Intel X86 EM64T Linux

User input:
--------------------------------------------------------------
$molecule
0 1
C         5.28635136490000   -0.93347531380000    0.01155441290000
C         3.97380093820000   -1.12702452790000    0.01160019780000
C         2.94100688630000   -0.09512621050000    0.00302130520000
C         3.21142568860000    1.27672299390000   -0.00202973340000
C         2.15082022170000    2.16526305870000   -0.00949023740000
C         0.85793885040000    1.67341198650000   -0.01122460540000
C         0.67614296260000    0.28928758180000   -0.00547572860000
C        -0.67614213120000   -0.28934994690000   -0.00551435820000
C        -0.85797366660000   -1.67347016880000   -0.01114862130000
C        -2.15087218420000   -2.16528349290000   -0.00949423390000
C        -3.21145724020000   -1.27671492500000   -0.00217905700000
C        -2.94100019340000    0.09512722130000    0.00279177900000
C        -3.97375202980000    1.12707202930000    0.01120345670000
C        -5.28631021940000    0.93358565290000    0.01210641750000
N        -1.69483444740000    0.56125208470000    0.00088255800000
N         1.69485385690000   -0.56129110250000    0.00109425440000
H         5.97329070680000   -1.76242179850000    0.01849503970000
H         5.73352410770000    0.04618755550000    0.00454315880000
H         3.57183247010000   -2.13123516310000    0.01841971410000
H         4.22746099260000    1.63722738280000    0.00021652490000
H         2.33208543350000    3.23107482060000   -0.01361464090000
H        -0.00519176950000    2.31792370850000   -0.01661529620000
H         0.00513529100000   -2.31801086300000   -0.01639201410000
H        -2.33216942960000   -3.23108869920000   -0.01355499280000
H        -4.22750146270000   -1.63719071260000   -0.00004939910000
H        -3.57173193950000    2.13126792610000    0.01715657440000
H        -5.73353413910000   -0.04605852020000    0.00607228000000
H        -5.97322269550000    1.76255748230000    0.01884376070000
$end

$rem
BASIS = 6-31G*
GUI = 2
METHOD = B3LYP
PRINT_ORBITALS false
MOLDEN_FORMAT false
--------------------------------------------------------------

             Standard Nuclear Orientation (Angstroms)
    I     Atom           X                Y                Z
 ----------------------------------------------------------------
    1      C       5.2984425774     0.8622041463    -0.0114572115
    2      C       3.9886175626     1.0734110410    -0.0114952438
    3      C       2.9420213145     0.0555141193    -0.0029256004
    4      C       3.1939418491    -1.3198523055     0.0021065760
    5      C       2.1214672123    -2.1940294415     0.0095598001
    6      C       0.8353265059    -1.6848126304     0.0113057086
    7      C       0.6721861490    -0.2983655341     0.0055754991
    8      C      -0.6721842053     0.2984298360     0.0056270315
    9      C      -0.8353602194     1.6848730817     0.0112799619
   10      C      -2.1215185918     2.1940524231     0.0096371146
   11      C      -3.1939732599     1.3198467041     0.0023146573
   12      C      -2.9420144274    -0.0555130479    -0.0026750409
   13      C      -3.9885691549    -1.0734568033    -0.0110959686
   14      C      -5.2984027813    -0.8623126250    -0.0119911776
   15      N      -1.7022386590    -0.5383769426    -0.0007768404
   16      N       1.7022588152     0.5384178178    -0.0009875287
   17      H       5.9964824669     1.6818250084    -0.0183898379
   18      H       5.7323823413    -0.1233917564    -0.0044604422
   19      H       3.6002085434     2.0829437458    -0.0183001377
   20      H       4.2050303464    -1.6940062376    -0.0001484143
   21      H       2.2883634365    -3.2621855906     0.0136696644
   22      H      -0.0364050330    -2.3176427843     0.0166914937
   23      H       0.0363500900     2.3177323585     0.0165282609
   24      H      -2.2884469037     3.2622023421     0.0137124127
   25      H      -4.2050710767     1.6939722145     0.0001937311
   26      H      -3.6001083684    -2.0829753000    -0.0170637087
   27      H      -5.7323939194     0.1232651027    -0.0059425553
   28      H      -5.9964162010    -1.6819590132    -0.0187365216
 ----------------------------------------------------------------

    8    -650.1875883377      7.43e-06  Convergence criterion met
 Total energy in the final basis set =     -650.1875883377

                    Orbital Energies (a.u.)
 --------------------------------------------------------------

 Alpha MOs
 -- Occupied --
-14.3225 -14.3225 -10.2253 -10.2253 -10.2215 -10.2212 -10.2023 -10.2023
-10.1944 -10.1944 -10.1879 -10.1879 -10.1877 -10.1877 -10.1843 -10.1843
 -0.9585  -0.9410  -0.8157  -0.8064  -0.7996  -0.7913  -0.7508  -0.7234
 -0.6549  -0.6541  -0.6267  -0.6112  -0.5744  -0.5541  -0.5177  -0.5082
 -0.4969  -0.4812  -0.4680  -0.4550  -0.4442  -0.4276  -0.4226  -0.4165
 -0.4123  -0.4012  -0.3954  -0.3800  -0.3636  -0.3577  -0.3509  -0.3205
 -0.3026  -0.2918  -0.2720  -0.2636  -0.2465  -0.2385  -0.2200

          Ground-State Mulliken Net Atomic Charges

     Atom                 Charge (a.u.)
  ----------------------------------------
      1 C                    -0.347327
      2 C                    -0.093731
      3 C                     0.316721
      4 C                    -0.175477
      5 C                    -0.099307
      6 C                    -0.153551
      7 C                     0.265794
      8 C                     0.265808
      9 C                    -0.153555
     10 C                    -0.099308
     11 C                    -0.175477
     12 C                     0.316722
     13 C                    -0.093729
     14 C                    -0.347329
     15 N                    -0.584634
     16 N                    -0.584634
     17 H                     0.148977
     18 H                     0.142925
     19 H                     0.141535
     20 H                     0.134693
     21 H                     0.140331
     22 H                     0.163047
     23 H                     0.163046
     24 H                     0.140331
     25 H                     0.134693
     26 H                     0.141535
     27 H                     0.142924
     28 H                     0.148978
  ----------------------------------------
  Sum of atomic charges =     0.000000

                    Cartesian Multipole Moments
 -----------------------------------------------------------------
    Charge (ESU x 10^10)
                 0.0000
    Dipole Moment (Debye)
         X      -0.0001      Y      -0.0000      Z       0.0113
       Tot       0.0113
    Quadrupole Moments (Debye-Ang)
        XX     -75.5279     XY      -5.6375     YY     -81.9157
        XZ       0.0009     YZ      -0.0016     ZZ     -96.8607

 Total job time:  40.53s(wall), 40.40s(cpu)
        *  Thank you very much for using Q-Chem.  Have a nice day.  *
