 Q-Chem 5.2, Q-Chem, Inc., Pleasanton, CA (2019)
 Q-Chem 5.2.1 for Intel X86 EM64T Linux

User input:
--------------------------------------------------------------
$molecule
0 1
C        -5.05160079480000    0.85903162340000   -1.26103527880000
C        -4.80823063360000    0.03381318830000    0.00108600780000
C        -5.68276262080000   -1.21996789100000    0.00245178800000
O        -3.45316053780000   -0.49010741030000    0.00232236970000
C        -2.40704793510000    0.33140611310000    0.00114200120000
N        -1.22868626670000   -0.40148288650000    0.00001510160000
C        -1.12537304450000   -1.78561894360000   -0.00210253820000
C         0.17251941600000   -2.15985072590000   -0.00437395420000
C         0.05651184120000    0.12025911510000   -0.00083083350000
C         0.96129293460000   -0.96419742430000   -0.00342754170000
C         2.33052405960000   -0.73753382160000   -0.00461469100000
C         2.79226028820000    0.57469211980000   -0.00317618960000
C         4.20574099650000    0.91854807280000   -0.00431030700000
C         5.25395978070000    0.10881679570000    0.00126978990000
F         5.26648987570000   -1.22003644340000    0.00910745900000
F         6.51316359080000    0.54839525820000    0.00022442070000
C         1.86961889770000    1.63665295580000   -0.00088636170000
C         0.50658678340000    1.43141875330000    0.00046632810000
O        -2.43025458950000    1.53423190010000    0.00092852430000
C        -5.05274287190000    0.86248702760000    1.26068358760000
H        -4.82123887870000    0.26811795350000   -2.14514640060000
H        -4.42691655830000    1.74796444160000   -1.25950034320000
H        -6.09398008380000    1.16169191500000   -1.30203306270000
H        -5.47650811780000   -1.82049122880000   -0.87966291440000
H        -6.73162254610000   -0.93987133800000    0.00265194110000
H        -5.47579088590000   -1.81897784040000    0.88543171820000
H        -2.01514587280000   -2.38296564800000   -0.00181960410000
H         0.54970381950000   -3.16298586550000   -0.00638738690000
H         3.00897288680000   -1.57414754770000   -0.00702351540000
H         4.44542938310000    1.97217398460000   -0.00957415270000
H         2.24559938620000    2.64879580950000   -0.00008149030000
H        -0.18608924320000    2.25623350050000    0.00231745510000
H        -6.09463642600000    1.16719129400000    1.29828197210000
H        -4.42644365400000    1.75028692640000    1.25841085530000
H        -4.82570615550000    0.27336706170000    2.14684937980000
$end

$rem
BASIS = 6-31G*
GUI = 2
METHOD = B3LYP
PRINT_ORBITALS false
MOLDEN_FORMAT false
--------------------------------------------------------------

             Standard Nuclear Orientation (Angstroms)
    I     Atom           X                Y                Z
 ----------------------------------------------------------------
    1      C      -4.8723736392    -0.8634828741     1.2612233416
    2      C      -4.6311091866    -0.0378031058    -0.0010005004
    3      C      -5.5087657419     1.2137926162    -0.0024757636
    4      O      -3.2773501394     0.4894955922    -0.0023466963
    5      C      -2.2291916910    -0.3294059788    -0.0011122127
    6      N      -1.0526616527     0.4064199832    -0.0001122420
    7      C      -0.9528010497     1.7908096542     0.0018447233
    8      C       0.3441540305     2.1682777853     0.0040253951
    9      C       0.2338338407    -0.1121147012     0.0007449380
   10      C       1.1359073136     0.9745954953     0.0031850739
   11      C       2.5056995771     0.7513479274     0.0043469049
   12      C       2.9707073304    -0.5597224050     0.0030398839
   13      C       4.3850413442    -0.9000515948     0.0041603131
   14      C       5.4312369917    -0.0877089632    -0.0015505716
   15      F       5.4404522710     1.2411704981    -0.0095392700
   16      F       6.6915333395    -0.5241451780    -0.0005022986
   17      C       2.0507175176    -1.6239814813     0.0009047448
   18      C       0.6871776895    -1.4221478037    -0.0004204296
   19      O      -2.2493981217    -1.5322858753    -0.0007615880
   20      C      -4.8736003078    -0.8672270671    -1.2604950728
   21      H      -4.6434536433    -0.2718962137     2.1452589247
   22      H      -4.2454741858    -1.7508549819     1.2597658568
   23      H      -5.9139932603    -1.1687375194     1.3022942430
   24      H      -5.3039771268     1.8149285584     0.8795632092
   25      H      -6.5569237815     0.9310808032    -0.0026051140
   26      H      -5.3033213680     1.8132168103    -0.8855312661
   27      H      -1.8440610498     2.3859351559     0.0015272496
   28      H       0.7188352689     3.1723508155     0.0059111208
   29      H       3.1820596620     1.5896515344     0.0066356684
   30      H       4.6273571820    -1.9530757846     0.0095346098
   31      H       2.4292213399    -2.6351834851     0.0002005478
   32      H      -0.0034389594    -2.2486878914    -0.0021523027
   33      H      -5.9147320026    -1.1745333818    -1.2980201258
   34      H      -4.2450885631    -1.7534617991    -1.2581450782
   35      H      -4.6480664645    -0.2776431401    -2.1467360641
 ----------------------------------------------------------------

    9    -985.5172150708      5.64e-06  Convergence criterion met
 Total energy in the final basis set =     -985.5172150708

                    Orbital Energies (a.u.)
 --------------------------------------------------------------

 Alpha MOs
 -- Occupied --
-24.7378 -24.7269 -19.2000 -19.1402 -14.3988 -10.3534 -10.3481 -10.2656
-10.2218 -10.2206 -10.1978 -10.1959 -10.1885 -10.1861 -10.1841 -10.1836
-10.1832 -10.1831 -10.1789 -10.1789  -1.2781  -1.2172  -1.1283  -1.0373
 -0.9956  -0.8611  -0.8296  -0.8024  -0.7909  -0.7381  -0.7268  -0.7059
 -0.7020  -0.6737  -0.6373  -0.6178  -0.6117  -0.5880  -0.5636  -0.5510
 -0.5242  -0.5166  -0.5119  -0.4960  -0.4932  -0.4785  -0.4728  -0.4561
 -0.4525  -0.4465  -0.4371  -0.4343  -0.4325  -0.4246  -0.4192  -0.4117
 -0.4055  -0.4038  -0.3947  -0.3902  -0.3774  -0.3728  -0.3652  -0.3614
 -0.3485  -0.3456  -0.3381  -0.3085  -0.2852  -0.2843  -0.2795  -0.2159
 -0.2072

          Ground-State Mulliken Net Atomic Charges

     Atom                 Charge (a.u.)
  ----------------------------------------
      1 C                    -0.468824
      2 C                     0.303094
      3 C                    -0.453338
      4 O                    -0.511695
      5 C                     0.827727
      6 N                    -0.614268
      7 C                     0.047206
      8 C                    -0.224114
      9 C                     0.306167
     10 C                     0.105185
     11 C                    -0.282539
     12 C                     0.197538
     13 C                    -0.300847
     14 C                     0.540478
     15 F                    -0.238090
     16 F                    -0.252845
     17 C                    -0.220540
     18 C                    -0.142530
     19 O                    -0.495158
     20 C                    -0.468791
     21 H                     0.150320
     22 H                     0.189825
     23 H                     0.148033
     24 H                     0.155729
     25 H                     0.152823
     26 H                     0.155780
     27 H                     0.173926
     28 H                     0.139199
     29 H                     0.138176
     30 H                     0.156931
     31 H                     0.126433
     32 H                     0.170830
     33 H                     0.147978
     34 H                     0.189913
     35 H                     0.150287
  ----------------------------------------
  Sum of atomic charges =     0.000000

                    Cartesian Multipole Moments
 -----------------------------------------------------------------
    Charge (ESU x 10^10)
                 0.0000
    Dipole Moment (Debye)
         X      -3.4469      Y       0.9879      Z       0.0061
       Tot       3.5856
    Quadrupole Moments (Debye-Ang)
        XX    -105.0654     XY      -5.0107     YY    -109.6521
        XZ       0.0235     YZ       0.0108     ZZ    -115.4872

 Total job time:  76.74s(wall), 76.53s(cpu)
        *  Thank you very much for using Q-Chem.  Have a nice day.  *
