 Q-Chem 5.4, Q-Chem, Inc., Pleasanton, CA (2021)
 Q-Chem 5.4.2 for Intel X86 EM64T Linux

User input:
--------------------------------------------------------------
$molecule
0 1
C            1.95445879920000       -2.14443421120000        0.98391958250000
C            1.09723793090000       -2.14109187220000       -0.02518735640000
C           -0.10208818380000       -1.29956585120000       -0.09699854290000
C           -1.30448878040000       -1.90536963580000       -0.45728597400000
C           -2.49965191960000       -1.21435138590000       -0.44574664320000
C           -2.50294655950000        0.11704156220000       -0.06931125100000
F           -3.65752603110000        0.80137587980000       -0.03831779520000
C           -1.31357696670000        0.74690716460000        0.26346804420000
F           -1.32216902880000        2.05000582580000        0.59705551040000
C           -0.09774248440000        0.06303426780000        0.23747227960000
C            1.10944122290000        0.83947604210000        0.53121243200000
C            2.22829630110000        0.79735119970000       -0.17080037000000
F            2.47321597390000        0.03257546380000       -1.22542689690000
F            3.29579882040000        1.54018335530000        0.09280361440000
H            2.79453095120000       -2.81631026380000        1.00577019270000
H            1.84444185300000       -1.48595656670000        1.82975273360000
H            1.21418287730000       -2.84365998020000       -0.83938550500000
H           -1.29931117060000       -2.94917140890000       -0.73124950850000
H           -3.42923533270000       -1.68794330630000       -0.71680373650000
H            1.05086190880000        1.57170342100000        1.32287820820000
$end

$rem
BASIS = 6-31G*
GUI = 2
METHOD = B3LYP
PRINT_ORBITALS false
MOLDEN_FORMAT false
$end
--------------------------------------------------------------

             Standard Nuclear Orientation (Angstroms)
    I     Atom           X                Y                Z
 ----------------------------------------------------------------
    1      C       1.9788235406     1.9595099562    -1.1322850851
    2      C       1.1189845635     2.0510687681    -0.1295740002
    3      C      -0.0920969111     1.2347463961     0.0068278582
    4      C      -1.2869135114     1.8845198316     0.3114263273
    5      C      -2.4915228721     1.2112487454     0.3523731196
    6      C      -2.5123146192    -0.1464822928     0.0869380571
    7      F      -3.6762003189    -0.8152498871     0.1080991476
    8      C      -1.3309342998    -0.8177874935    -0.1883120711
    9      F      -1.3567428576    -2.1437177908    -0.4133971820
   10      C      -0.1057929554    -0.1507262595    -0.2141849005
   11      C       1.0912614290    -0.9651182478    -0.4383814645
   12      C       2.2087410776    -0.8804935042     0.2619834763
   13      F       2.4614793397    -0.0347643016     1.2509072197
   14      F       3.2665155967    -1.6570056167     0.0645238436
   15      H       2.8281994896     2.6157896311    -1.2062687687
   16      H       1.8619008395     1.2350865639    -1.9213795579
   17      H       1.2435301517     2.8167253261     0.6243856298
   18      H      -1.2679628454     2.9471903321     0.4984483766
   19      H      -3.4151505604     1.7181984525     0.5799702744
   20      H       1.0246044364    -1.7592673384    -1.1672211169
 ----------------------------------------------------------------

    9    -783.9640705834      3.52e-06  Convergence criterion met
 Total energy in the final basis set =     -783.9640705834

                    Orbital Energies (a.u.)
 --------------------------------------------------------------

 Alpha MOs
 -- Occupied --
-24.7417 -24.7384 -24.7200 -24.7162 -10.3600 -10.2833 -10.2825 -10.2222
-10.2114 -10.2061 -10.2059 -10.2030 -10.1977 -10.1856  -1.2871  -1.2372
 -1.2268  -1.2237  -0.8887  -0.8190  -0.7996  -0.7555  -0.7374  -0.6638
 -0.6343  -0.6240  -0.5865  -0.5782  -0.5565  -0.5389  -0.5239  -0.5179
 -0.5053  -0.4868  -0.4745  -0.4603  -0.4535  -0.4492  -0.4425  -0.4364
 -0.4293  -0.4158  -0.4027  -0.3993  -0.3681  -0.3662  -0.3547  -0.2943
 -0.2905  -0.2436  -0.2272

          Ground-State Mulliken Net Atomic Charges

     Atom                 Charge (a.u.)
  ----------------------------------------
      1 C                    -0.327663
      2 C                    -0.144790
      3 C                     0.111541
      4 C                    -0.181820
      5 C                    -0.199599
      6 C                     0.324719
      7 F                    -0.282535
      8 C                     0.256694
      9 F                    -0.275568
     10 C                     0.025176
     11 C                    -0.336490
     12 C                     0.588120
     13 F                    -0.230900
     14 F                    -0.241741
     15 H                     0.147519
     16 H                     0.152858
     17 H                     0.141778
     18 H                     0.140284
     19 H                     0.155151
     20 H                     0.177263
  ----------------------------------------
  Sum of atomic charges =     0.000000

                    Cartesian Multipole Moments
 -----------------------------------------------------------------
    Charge (ESU x 10^10)
                 0.0000
    Dipole Moment (Debye)
         X       0.3598      Y       1.9047      Z      -0.2660
       Tot       1.9565
    Quadrupole Moments (Debye-Ang)
        XX     -78.4821     XY      -2.7236     YY     -73.1862
        XZ      -2.6594     YZ       2.0214     ZZ     -75.3352

 Total job time:  62.77s(wall), 53.29s(cpu)
        *  Thank you very much for using Q-Chem.  Have a nice day.  *
