 Q-Chem 5.4, Q-Chem, Inc., Pleasanton, CA (2021)
 Q-Chem 5.4.2 for Intel X86 EM64T Linux

User input:
--------------------------------------------------------------
$molecule
0 1
C            2.01513312240000        2.68245562300000        0.36035024630000
C            0.75651867030000        2.67613251240000        0.77894830090000
C           -0.25515408980000        1.66920758730000        0.46286776320000
C           -1.57152160580000        2.09726673760000        0.29329637140000
C           -2.58150972120000        1.22166948600000       -0.04904580090000
C           -2.28333164060000       -0.12108712050000       -0.19713104620000
F           -3.25791841680000       -0.99027947440000       -0.50553978010000
C           -0.98634386530000       -0.57565712760000       -0.00595926370000
F           -0.73981929090000       -1.89288076890000       -0.08148178940000
C            0.04798973310000        0.30439720280000        0.31398019770000
C            1.39063580960000       -0.21247851240000        0.57678294650000
C            2.00996757100000       -1.13815918280000       -0.13833536870000
F            1.59190758160000       -1.68871416490000       -1.26453251320000
F            3.22060264580000       -1.59934592790000        0.15841730180000
H            2.68509568250000        3.48349276260000        0.62168409990000
H            2.41534666640000        1.91588543190000       -0.28019930010000
H            0.38981954570000        3.50718903240000        1.36838858060000
H           -1.79951326810000        3.14487899120000        0.41732080920000
H           -3.59630488460000        1.55561500280000       -0.19225218730000
H            1.91771196200000        0.18766518680000        1.42995963430000
$end

$rem
BASIS = 6-31G*
GUI = 2
METHOD = B3LYP
PRINT_ORBITALS false
MOLDEN_FORMAT false
$end
--------------------------------------------------------------

             Standard Nuclear Orientation (Angstroms)
    I     Atom           X                Y                Z
 ----------------------------------------------------------------
    1      C       1.3838255319    -2.9639649756     0.3678492713
    2      C       0.1627916408    -2.7830029525    -0.1176439161
    3      C      -0.6013938125    -1.5369002716    -0.0945098252
    4      C      -1.9817904543    -1.6209429925     0.0850854492
    5      C      -2.7739541302    -0.4938412006     0.1629504893
    6      C      -2.1847241140     0.7505228322     0.0280399493
    7      F      -2.9434701484     1.8561409359     0.0764521772
    8      C      -0.8170706834     0.8589489204    -0.1796273525
    9      F      -0.2831531073     2.0735545187    -0.3826578957
   10      C      -0.0024028900    -0.2724870117    -0.2332183432
   11      C       1.4244061790    -0.1311758468    -0.5216127113
   12      C       2.2276576429     0.7781900388     0.0072459758
   13      F       1.9317892590     1.6490883505     0.9560362484
   14      F       3.5137008609     0.8872731327    -0.3099075607
   15      H       1.8604241978    -3.9285095489     0.3316112827
   16      H       1.9387099296    -2.1755614469     0.8459995000
   17      H      -0.3743613519    -3.6281128950    -0.5297347778
   18      H      -2.4368908180    -2.5947368568     0.1823626922
   19      H      -3.8391201135    -0.5595189995     0.3144257531
   20      H       1.8573669159    -0.8201519335    -1.2313250920
 ----------------------------------------------------------------

    9    -783.9674504960      3.56e-06  Convergence criterion met
 Total energy in the final basis set =     -783.9674504960

                    Orbital Energies (a.u.)
 --------------------------------------------------------------

 Alpha MOs
 -- Occupied --
-24.7402 -24.7361 -24.7177 -24.7162 -10.3590 -10.2836 -10.2827 -10.2231
-10.2125 -10.2063 -10.2058 -10.2038 -10.2022 -10.1903  -1.2862  -1.2371
 -1.2260  -1.2225  -0.8893  -0.8194  -0.8025  -0.7545  -0.7394  -0.6634
 -0.6361  -0.6228  -0.5896  -0.5730  -0.5604  -0.5420  -0.5291  -0.5167
 -0.5013  -0.4850  -0.4763  -0.4605  -0.4526  -0.4460  -0.4399  -0.4385
 -0.4300  -0.4149  -0.4019  -0.3984  -0.3704  -0.3683  -0.3560  -0.2987
 -0.2933  -0.2432  -0.2279

          Ground-State Mulliken Net Atomic Charges

     Atom                 Charge (a.u.)
  ----------------------------------------
      1 C                    -0.337454
      2 C                    -0.139867
      3 C                     0.118632
      4 C                    -0.191515
      5 C                    -0.198711
      6 C                     0.324304
      7 F                    -0.281521
      8 C                     0.261722
      9 F                    -0.276866
     10 C                     0.031013
     11 C                    -0.333641
     12 C                     0.573409
     13 F                    -0.229772
     14 F                    -0.245656
     15 H                     0.148514
     16 H                     0.160571
     17 H                     0.138949
     18 H                     0.139891
     19 H                     0.155018
     20 H                     0.182980
  ----------------------------------------
  Sum of atomic charges =     0.000000

                    Cartesian Multipole Moments
 -----------------------------------------------------------------
    Charge (ESU x 10^10)
                 0.0000
    Dipole Moment (Debye)
         X      -0.4593      Y      -2.8997      Z      -0.2405
       Tot       2.9457
    Quadrupole Moments (Debye-Ang)
        XX     -73.6805     XY       1.7569     YY     -74.3712
        XZ      -0.4552     YZ       0.5891     ZZ     -76.7311

 Total job time:  59.61s(wall), 52.64s(cpu)
        *  Thank you very much for using Q-Chem.  Have a nice day.  *
