 Q-Chem 5.2, Q-Chem, Inc., Pleasanton, CA (2019)
 Q-Chem 5.2.1 for Intel X86 EM64T Linux

User input:
--------------------------------------------------------------
$molecule
0 1
C        -4.81722167030000    1.94939505750000    0.08578564180000
C        -4.50808569890000    0.66468796410000   -0.04025395770000
C        -3.16902697060000    0.08391688460000   -0.02728915240000
C        -3.05858437460000   -1.32065405530000   -0.00833059020000
C        -1.84461577540000   -1.97155526950000    0.01105501020000
C        -0.70542130670000   -1.18209738210000    0.00648152230000
O         0.58348966590000   -1.58491987520000    0.02012923930000
C         1.34736956690000   -0.45245262910000    0.00371781960000
C         2.77236398070000   -0.64553807950000    0.01589743460000
C         3.68190983220000    0.32066003570000    0.00397921560000
F         3.44451640410000    1.62598607750000   -0.02149862200000
F         4.99196800530000    0.10639777640000    0.01629649210000
C         0.57232224830000    0.67371916850000   -0.02119150190000
C        -0.77986165280000    0.22733475710000   -0.01925031590000
C        -2.01868520690000    0.86020885770000   -0.03649557430000
H        -5.84080363840000    2.28182704100000    0.06686276230000
H        -4.07600366130000    2.71865929740000    0.21744905750000
H        -5.30874193260000   -0.05576962710000   -0.15493883800000
H        -3.96558078580000   -1.90743021750000   -0.00511328530000
H        -1.77607004330000   -3.04737014400000    0.02755542250000
H         3.12187582590000   -1.66571751300000    0.03689170770000
H         0.91786686220000    1.68640778410000   -0.03779901230000
H        -2.06941009540000    1.93646952610000   -0.06380134230000
$end

$rem
BASIS = 6-31G*
GUI = 2
METHOD = B3LYP
PRINT_ORBITALS false
MOLDEN_FORMAT false
--------------------------------------------------------------

             Standard Nuclear Orientation (Angstroms)
    I     Atom           X                Y                Z
 ----------------------------------------------------------------
    1      C       4.7168415037    -1.8807552993     0.0820182107
    2      C       4.3892094097    -0.6004560364    -0.0421363445
    3      C       3.0419230747    -0.0390593081    -0.0281844342
    4      C       2.9112559327     1.3637456968    -0.0071907311
    5      C       1.6880370864     1.9970584239     0.0132688799
    6      C       0.5603356267     1.1912749741     0.0076867436
    7      O      -0.7342439971     1.5754633828     0.0220596549
    8      C      -1.4817289934     0.4321315614     0.0041033782
    9      C      -2.9093560127     0.6046461726     0.0167214661
   10      C      -3.8048870179    -0.3745393489     0.0035142288
   11      F      -3.5487131187    -1.6762712209    -0.0238701118
   12      F      -5.1178948492    -0.1791942042     0.0162875355
   13      C      -0.6905383931    -0.6827184893    -0.0225149741
   14      C       0.6550733990    -0.2168997430    -0.0200831761
   15      C       1.9028851514    -0.8318321843    -0.0383792845
   16      H       5.7451047067    -2.1983761788     0.0625013821
   17      H       3.9868023752    -2.6608086376     0.2126571136
   18      H       5.1793861129     0.1316278092    -0.1558737077
   19      H       3.8097037141     1.9635248281    -0.0032305187
   20      H       1.6039991949     3.0717490717     0.0313262763
   21      H      -3.2735285928     1.6196522433     0.0392242283
   22      H      -1.0214574589    -1.7002560670    -0.0405419429
   23      H       1.9691090324    -1.9072098223    -0.0672406611
 ----------------------------------------------------------------

    9    -736.9440873133      6.67e-06  Convergence criterion met
 Total energy in the final basis set =     -736.9440873133

                    Orbital Energies (a.u.)
 --------------------------------------------------------------

 Alpha MOs
 -- Occupied --
-24.7533 -24.7468 -19.2195 -10.3696 -10.2614 -10.2443 -10.2167 -10.1946
-10.1940 -10.1934 -10.1895 -10.1887 -10.1887 -10.1877 -10.1762  -1.2959
 -1.2360  -1.1238  -0.8654  -0.8328  -0.8008  -0.7838  -0.7311  -0.7280
 -0.6669  -0.6354  -0.6072  -0.5971  -0.5824  -0.5636  -0.5358  -0.5296
 -0.5155  -0.4995  -0.4675  -0.4665  -0.4558  -0.4511  -0.4476  -0.4424
 -0.4302  -0.4113  -0.4042  -0.3926  -0.3883  -0.3676  -0.3494  -0.3377
 -0.3185  -0.2953  -0.2757  -0.2178  -0.2067

          Ground-State Mulliken Net Atomic Charges

     Atom                 Charge (a.u.)
  ----------------------------------------
      1 C                    -0.352268
      2 C                    -0.116611
      3 C                     0.171168
      4 C                    -0.211302
      5 C                    -0.187316
      6 C                     0.334737
      7 O                    -0.522945
      8 C                     0.358337
      9 C                    -0.320145
     10 C                     0.567840
     11 F                    -0.233548
     12 F                    -0.240134
     13 C                    -0.248572
     14 C                     0.121598
     15 C                    -0.263351
     16 H                     0.142205
     17 H                     0.140267
     18 H                     0.125366
     19 H                     0.129546
     20 H                     0.141731
     21 H                     0.182914
     22 H                     0.149660
     23 H                     0.130823
  ----------------------------------------
  Sum of atomic charges =     0.000000

                    Cartesian Multipole Moments
 -----------------------------------------------------------------
    Charge (ESU x 10^10)
                 0.0000
    Dipole Moment (Debye)
         X      -0.0085      Y       0.2398      Z      -0.0036
       Tot       0.2400
    Quadrupole Moments (Debye-Ang)
        XX     -79.6953     XY      -0.3879     YY     -77.4332
        XZ      -0.1967     YZ      -0.1380     ZZ     -86.6894

 Total job time:  35.22s(wall), 35.10s(cpu)
        *  Thank you very much for using Q-Chem.  Have a nice day.  *
