 Q-Chem 5.2, Q-Chem, Inc., Pleasanton, CA (2019)
 Q-Chem 5.2.1 for Intel X86 EM64T Linux

User input:
--------------------------------------------------------------
$molecule
0 1
C         2.45354708990000    0.87261678600000    3.01181034970000
C         2.15943605350000   -0.32706263120000    2.51674351550000
C         1.46409231310000   -0.65227601000000    1.29605013840000
S         1.71648277220000   -2.26246915670000    0.68301694160000
C         0.65145650390000   -1.97900801680000   -0.65989559920000
C         0.44324545200000   -3.00323483390000   -1.64791625970000
C         0.93707559380000   -4.23660472320000   -1.57838464770000
C         0.11765852050000   -0.70941571150000   -0.60741910610000
C        -0.90847862580000   -0.19471153590000   -1.57189663010000
C        -2.33322599800000   -0.39797280270000   -1.03202948950000
C        -2.73711791120000   -1.86832148370000   -0.98910065010000
C        -4.09698765060000   -2.10343607900000   -0.33042022940000
C        -4.16945794580000   -1.71627517720000    1.14859898160000
C        -3.13112098310000   -2.42501159020000    2.01093726300000
C         0.58072298770000    0.04592291180000    0.50295236180000
C         0.15706580170000    1.45790740910000    0.76493172300000
C         1.06656972520000    2.45383699980000    0.03389307450000
C         0.66743875700000    3.89618271150000    0.33323442180000
C         1.61105874500000    4.92815105190000   -0.28631649110000
C         1.66485231520000    4.91775687040000   -1.81511706140000
C         0.32406746690000    5.23346239560000   -2.46780367800000
H         2.98143396160000    0.95991853350000    3.94628730010000
H         2.21032876640000    1.79587176650000    2.52075867310000
H         2.49563575030000   -1.20265096930000    3.06065200730000
H        -0.16272643010000   -2.71753698690000   -2.49684316070000
H         1.53878626370000   -4.55660895470000   -0.74370787620000
H         0.75426340220000   -4.96226512910000   -2.35089644050000
H        -0.81270611560000   -0.70034864150000   -2.53364434470000
H        -0.74269661710000    0.87002829660000   -1.74346333570000
H        -3.03480406680000    0.15110605420000   -1.66514879880000
H        -2.38978635590000    0.02140235110000   -0.02702408050000
H        -1.97664733130000   -2.44007778850000   -0.45696891400000
H        -2.77909829740000   -2.25474420750000   -2.01099016710000
H        -4.34015037020000   -3.16496516430000   -0.42277794320000
H        -4.86067039030000   -1.54217961040000   -0.87556440300000
H        -5.16765531690000   -1.97078026470000    1.51394179050000
H        -4.05412300750000   -0.63629540570000    1.25781815890000
H        -3.17854830250000   -3.50098619550000    1.85728526660000
H        -3.31425951350000   -2.22054494800000    3.06360429930000
H        -2.12556670560000   -2.08652593790000    1.77375359910000
H         0.18291912190000    1.65053337820000    1.83887688450000
H        -0.86961423620000    1.60747583500000    0.42771817210000
H         1.00513888750000    2.26466986250000   -1.03896038470000
H         2.10424375630000    2.28893192950000    0.33255581530000
H         0.66647054760000    4.04351336730000    1.41699002670000
H        -0.35191451530000    4.07144820770000   -0.01546345210000
H         2.62005355450000    4.75533728100000    0.09714380020000
H         1.29946580040000    5.92237307190000    0.04435187350000
H         2.02259427410000    3.94843624420000   -2.16636398970000
H         2.39542079830000    5.66623369200000   -2.13191130050000
H        -0.40239663720000    4.44884184680000   -2.27257437840000
H         0.44140513670000    5.32250920900000   -3.54557602610000
H        -0.07260223050000    6.17260702990000   -2.08764016500000
$end

$rem
BASIS = 6-31G*
GUI = 2
METHOD = B3LYP
PRINT_ORBITALS false
MOLDEN_FORMAT false
--------------------------------------------------------------

             Standard Nuclear Orientation (Angstroms)
    I     Atom           X                Y                Z
 ----------------------------------------------------------------
    1      C       1.4536083874    -3.0629772191     2.1468018014
    2      C       0.2817556118    -3.0133552388     1.5182145700
    3      C      -0.1813782055    -2.0500916486     0.5502324921
    4      S      -1.5069086791    -2.5610638934    -0.4567972704
    5      C      -1.5450441207    -1.0316828702    -1.2799525632
    6      C      -2.4798968942    -0.8081168092    -2.3498337476
    7      C      -3.4249723480    -1.6665228425    -2.7238332214
    8      C      -0.5928566433    -0.1739893116    -0.7727450528
    9      C      -0.4365332621     1.2519606676    -1.2090068814
   10      C      -1.2239675862     2.2046152137    -0.2951834587
   11      C      -2.7333369454     2.0521517008    -0.4547322639
   12      C      -3.5350286267     2.8925599523     0.5399480348
   13      C      -3.3361511591     2.5117266063     2.0089807266
   14      C      -3.6568436341     1.0508082673     2.3038573213
   15      C       0.1839461014    -0.7529159555     0.2661540617
   16      C       1.2914445925    -0.0241183047     0.9619413093
   17      C       2.6219646711    -0.1980356874     0.2183287040
   18      C       3.7636168158     0.5052009909     0.9472734746
   19      C       5.1308128538     0.2707227789     0.3030564049
   20      C       5.2745275635     0.8108793637    -1.1209555041
   21      C       5.0989429703     2.3221835852    -1.2131694304
   22      H       1.6581672819    -3.8497872385     2.8529313697
   23      H       2.2482455117    -2.3599757891     1.9824014022
   24      H      -0.4375653690    -3.8011970701     1.7116162162
   25      H      -2.3801441024     0.1357539966    -2.8681573409
   26      H      -3.5566134856    -2.6125146930    -2.2249206228
   27      H      -4.0947678491    -1.4497307530    -3.5369463554
   28      H      -0.7797754969     1.3741071802    -2.2371435068
   29      H       0.6193328622     1.5257619512    -1.1812705435
   30      H      -0.9385296591     3.2343005297    -0.5249937659
   31      H      -0.9483288321     2.0035880060     0.7405393830
   32      H      -3.0079210429     1.0032160789    -0.3419377872
   33      H      -3.0156288098     2.3554660017    -1.4664905342
   34      H      -4.5952114646     2.7883483813     0.2957056281
   35      H      -3.2701978234     3.9458290364     0.4138877215
   36      H      -3.9895318375     3.1472472227     2.6121833744
   37      H      -2.3102362710     2.7256703596     2.3144541239
   38      H      -4.6488204967     0.7968041080     1.9363747651
   39      H      -3.6316766154     0.8697380182     3.3762538918
   40      H      -2.9346708142     0.3871360043     1.8348439123
   41      H       1.3852171902    -0.3974118158     1.9832101390
   42      H       1.0583839550     1.0400599611     1.0199322660
   43      H       2.5174286464     0.2066367467    -0.7895824722
   44      H       2.8485731466    -1.2618610024     0.1179055598
   45      H       3.8045632209     0.1363278189     1.9761026372
   46      H       3.5579685198     1.5759549611     0.9981066220
   47      H       5.3316711161    -0.8037112089     0.2880736051
   48      H       5.8928154160     0.7389228827     0.9315863673
   49      H       4.5550982388     0.3190442996    -1.7778085368
   50      H       6.2726306680     0.5498713258    -1.4814710347
   51      H       4.0798092218     2.6146671009    -0.9737664746
   52      H       5.3195437777     2.6662640440    -2.2212540597
   53      H       5.7730492091     2.8264764155    -0.5238702865
 ----------------------------------------------------------------

    9   -1179.5610414774      2.37e-06  Convergence criterion met
 Total energy in the final basis set =    -1179.5610414774

                    Orbital Energies (a.u.)
 --------------------------------------------------------------

 Alpha MOs
 -- Occupied --
-88.8935 -10.2113 -10.2099 -10.1966 -10.1935 -10.1899 -10.1886 -10.1869
-10.1835 -10.1800 -10.1790 -10.1785 -10.1776 -10.1756 -10.1750 -10.1742
-10.1711 -10.1703 -10.1693 -10.1690 -10.1623  -7.9557  -5.9198  -5.9161
 -5.9124  -0.8886  -0.8160  -0.8141  -0.8008  -0.7869  -0.7693  -0.7646
 -0.7352  -0.7207  -0.6911  -0.6873  -0.6475  -0.6401  -0.6211  -0.6066
 -0.5990  -0.5703  -0.5538  -0.5489  -0.5296  -0.5162  -0.4878  -0.4754
 -0.4624  -0.4607  -0.4565  -0.4555  -0.4508  -0.4362  -0.4302  -0.4206
 -0.4125  -0.4118  -0.4020  -0.3950  -0.3925  -0.3853  -0.3822  -0.3753
 -0.3720  -0.3620  -0.3591  -0.3540  -0.3516  -0.3500  -0.3423  -0.3380
 -0.3297  -0.3234  -0.3185  -0.3161  -0.3126  -0.3114  -0.3094  -0.3060
 -0.3046  -0.2651  -0.2344  -0.1944

          Ground-State Mulliken Net Atomic Charges

     Atom                 Charge (a.u.)
  ----------------------------------------
      1 C                    -0.351592
      2 C                    -0.095386
      3 C                    -0.198046
      4 S                     0.221915
      5 C                    -0.217190
      6 C                    -0.048342
      7 C                    -0.379581
      8 C                     0.121177
      9 C                    -0.354824
     10 C                    -0.259269
     11 C                    -0.269192
     12 C                    -0.251562
     13 C                    -0.253462
     14 C                    -0.450739
     15 C                     0.146354
     16 C                    -0.366659
     17 C                    -0.266110
     18 C                    -0.259395
     19 C                    -0.251586
     20 C                    -0.253511
     21 C                    -0.444274
     22 H                     0.143615
     23 H                     0.151776
     24 H                     0.138316
     25 H                     0.137556
     26 H                     0.156904
     27 H                     0.143912
     28 H                     0.144877
     29 H                     0.144683
     30 H                     0.130379
     31 H                     0.148359
     32 H                     0.161122
     33 H                     0.122133
     34 H                     0.127373
     35 H                     0.123373
     36 H                     0.129620
     37 H                     0.132465
     38 H                     0.141947
     39 H                     0.140307
     40 H                     0.159819
     41 H                     0.151124
     42 H                     0.144811
     43 H                     0.145080
     44 H                     0.145652
     45 H                     0.129466
     46 H                     0.133727
     47 H                     0.127766
     48 H                     0.126536
     49 H                     0.137249
     50 H                     0.131777
     51 H                     0.143387
     52 H                     0.143554
     53 H                     0.142610
  ----------------------------------------
  Sum of atomic charges =     0.000000

                    Cartesian Multipole Moments
 -----------------------------------------------------------------
    Charge (ESU x 10^10)
                -0.0000
    Dipole Moment (Debye)
         X       0.7401      Y       1.1205      Z       0.0820
       Tot       1.3454
    Quadrupole Moments (Debye-Ang)
        XX    -137.2045     XY      -0.2050     YY    -139.4282
        XZ       3.5164     YZ      -4.0733     ZZ    -138.1942

 Total job time:  147.87s(wall), 146.59s(cpu)
        *  Thank you very much for using Q-Chem.  Have a nice day.  *
