 Q-Chem 5.2, Q-Chem, Inc., Pleasanton, CA (2019)
 Q-Chem 5.2.1 for Intel X86 EM64T Linux

User input:
--------------------------------------------------------------
$molecule
0 1
C        -3.82185708010000    2.26059078850000   -0.41379697040000
C        -2.53639106570000    2.28511992170000   -0.07196155830000
C        -1.69972219310000    1.12735585490000    0.07756373120000
C        -0.37016094380000    1.11351934030000    0.41582996650000
C         0.20018837000000   -0.17069374760000    0.48758618880000
C         1.63654753850000   -0.49081165350000    0.81288322670000
C         2.35811540610000   -1.11738783770000   -0.39423402480000
C         2.69110229860000   -0.07834060910000   -1.45755837200000
C         3.60908244110000    0.98712604960000   -0.87153424390000
C         2.89927604920000    1.69022753840000    0.27870271400000
C         2.45438151840000    0.69270869220000    1.34845388780000
C        -0.72997203590000   -1.15869029980000    0.22099583190000
C        -0.55734449290000   -2.58559035370000    0.27154268610000
C        -1.44478016770000   -3.47531969200000   -0.16666281900000
S        -2.28934549650000   -0.48594736850000   -0.15933248880000
H        -4.39990169030000    3.16242377870000   -0.50948534570000
H        -4.33189763840000    1.33143033830000   -0.60796773010000
H        -2.03905529430000    3.22834891180000    0.11883521430000
H         0.15857138660000    2.02460041390000    0.62577979300000
H         1.61255237550000   -1.24708728940000    1.61001610530000
H         1.73852315780000   -1.90234102770000   -0.83024994860000
H         3.28706101980000   -1.57582018710000   -0.04493110020000
H         1.76974622050000    0.38692127240000   -1.81545783170000
H         3.17360579940000   -0.56687552960000   -2.30681837370000
H         3.88400221300000    1.71478057490000   -1.63793454800000
H         4.52695327150000    0.51698449790000   -0.51006677560000
H         2.04366126870000    2.22937914370000   -0.12786590660000
H         3.56472875790000    2.42574262680000    0.73756313480000
H         1.88501942740000    1.20793554610000    2.12536181650000
H         3.35180105180000    0.28295333910000    1.82030822780000
H         0.36632726610000   -2.92759590450000    0.72003982940000
H        -2.37147378960000   -3.16877745100000   -0.62273091660000
H        -1.27086893140000   -4.53363231190000   -0.08524221170000
$end

$rem
BASIS = 6-31G*
GUI = 2
METHOD = B3LYP
PRINT_ORBITALS false
MOLDEN_FORMAT false
--------------------------------------------------------------

             Standard Nuclear Orientation (Angstroms)
    I     Atom           X                Y                Z
 ----------------------------------------------------------------
    1      C       3.8942892831     2.2478095882     0.4104197817
    2      C       2.6085564423     2.2734310623     0.0696697212
    3      C       1.7715151115     1.1162076957    -0.0819420830
    4      C       0.4416814976     1.1034647095    -0.4191790713
    5      C      -0.1290060251    -0.1804501742    -0.4935354646
    6      C      -1.5656942370    -0.4994813576    -0.8184468112
    7      C      -2.2864362876    -1.1287714954     0.3877516716
    8      C      -2.6183474986    -0.0921851580     1.4538106729
    9      C      -3.5365614407     0.9748721596     0.8710561284
   10      C      -2.8275187410     1.6805545887    -0.2780707732
   11      C      -2.3836959633     0.6854875185    -1.3505470825
   12      C       0.8011503682    -1.1692801518    -0.2300390783
   13      C       0.6281701555    -2.5960183869    -0.2838430877
   14      C       1.5157602221    -3.4869805191     0.1515358159
   15      S       2.3609739272    -0.4977825975     0.1506442181
   16      H       4.4726074663     3.1492868485     0.5077922975
   17      H       4.4042810950     1.3180790544     0.6019720818
   18      H       2.1112751842     3.2172193098    -0.1184852680
   19      H      -0.0870186233     2.0151575218    -0.6265384879
   20      H      -1.5425004326    -1.2538632509    -1.6173957696
   21      H      -1.6666683619    -1.9148944335     0.8214040612
   22      H      -3.2157605480    -1.5861697381     0.0381004568
   23      H      -1.6966044196     0.3720237889     1.8120807026
   24      H      -3.1002804557    -0.5826347869     2.3022906867
   25      H      -3.8107105460     1.7007606153     1.6394047689
   26      H      -4.4548231873     0.5057912900     0.5092037095
   27      H      -1.9714619423     2.2185515083     0.1290965403
   28      H      -3.4931761557     2.4173038790    -0.7346486175
   29      H      -1.8148408961     1.2024379891    -2.1266810624
   30      H      -3.2815812395     0.2770509039    -1.8226586679
   31      H      -0.2959338748    -2.9367552736    -0.7324153983
   32      H       2.4428843881    -3.1817255122     0.6075922659
   33      H       1.3415523934    -4.5450586291     0.0677361714
 ----------------------------------------------------------------

    9    -942.4781417875      2.10e-06  Convergence criterion met
 Total energy in the final basis set =     -942.4781417875

                    Orbital Energies (a.u.)
 --------------------------------------------------------------

 Alpha MOs
 -- Occupied --
-88.8967 -10.2142 -10.2111 -10.1961 -10.1953 -10.1918 -10.1914 -10.1850
-10.1798 -10.1797 -10.1793 -10.1755 -10.1753 -10.1731 -10.1715  -7.9588
 -5.9228  -5.9192  -5.9157  -0.8893  -0.8371  -0.8048  -0.7755  -0.7575
 -0.7415  -0.7176  -0.6977  -0.6267  -0.6137  -0.6055  -0.5723  -0.5553
 -0.5443  -0.5070  -0.4909  -0.4839  -0.4538  -0.4488  -0.4443  -0.4357
 -0.4242  -0.4074  -0.3960  -0.3917  -0.3837  -0.3750  -0.3724  -0.3609
 -0.3577  -0.3505  -0.3394  -0.3267  -0.3204  -0.3132  -0.2988  -0.2938
 -0.2665  -0.2431  -0.1944

          Ground-State Mulliken Net Atomic Charges

     Atom                 Charge (a.u.)
  ----------------------------------------
      1 C                    -0.374880
      2 C                    -0.055989
      3 C                    -0.137074
      4 C                    -0.195979
      5 C                     0.157419
      6 C                    -0.167920
      7 C                    -0.264463
      8 C                    -0.261474
      9 C                    -0.254429
     10 C                    -0.265091
     11 C                    -0.273964
     12 C                    -0.207426
     13 C                    -0.058717
     14 C                    -0.376685
     15 S                     0.241201
     16 H                     0.145651
     17 H                     0.155916
     18 H                     0.136235
     19 H                     0.140888
     20 H                     0.134629
     21 H                     0.144545
     22 H                     0.125438
     23 H                     0.142404
     24 H                     0.130706
     25 H                     0.129830
     26 H                     0.126291
     27 H                     0.136886
     28 H                     0.131104
     29 H                     0.136734
     30 H                     0.131959
     31 H                     0.143614
     32 H                     0.157723
     33 H                     0.144921
  ----------------------------------------
  Sum of atomic charges =     0.000000

                    Cartesian Multipole Moments
 -----------------------------------------------------------------
    Charge (ESU x 10^10)
                 0.0000
    Dipole Moment (Debye)
         X      -1.1725      Y       0.3254      Z      -0.2621
       Tot       1.2447
    Quadrupole Moments (Debye-Ang)
        XX     -95.8076     XY       1.6486     YY     -91.6169
        XZ       2.6186     YZ      -0.0320     ZZ    -101.3509

 Total job time:  62.42s(wall), 62.24s(cpu)
        *  Thank you very much for using Q-Chem.  Have a nice day.  *
