 Q-Chem 5.2, Q-Chem, Inc., Pleasanton, CA (2019)
 Q-Chem 5.2.1 for Intel X86 EM64T Linux

User input:
--------------------------------------------------------------
$molecule
0 1
C        -1.35994609190000   -2.65375560040000    1.37255775280000
C        -0.87826852710000   -1.42503002520000    1.24341176860000
C        -1.51438203070000   -0.34584365710000    0.49056822480000
C        -2.89874564100000   -0.29032784150000    0.33884610530000
C        -3.50292419190000    0.75054442650000   -0.33932611840000
C        -2.73082423330000    1.76978008210000   -0.87232836010000
C        -1.35653729360000    1.73555790740000   -0.72458703000000
C        -0.73617645070000    0.68567653440000   -0.05750906910000
C         0.73586856530000    0.68589670310000    0.05717048480000
C         1.35586238190000    1.73731625360000    0.72216332010000
C         2.73008562500000    1.77206576280000    0.87026721010000
C         3.50245070840000    0.75152471030000    0.34014605460000
C         2.89865953990000   -0.29079961320000   -0.33611508950000
C         1.51438144890000   -0.34657609660000   -0.48877809620000
C         0.87844381160000   -1.42611254640000   -1.24117626430000
C         1.36194175990000   -2.65365400960000   -1.37486725090000
H        -0.84471070540000   -3.40234896710000    1.94940185410000
H        -2.27294327080000   -2.96811500040000    0.89522688340000
H         0.06417449520000   -1.17004598830000    1.71168255700000
H        -3.50764452630000   -1.06563696400000    0.77912350390000
H        -4.57774851110000    0.77309922640000   -0.44519775690000
H        -3.19813004540000    2.58901585770000   -1.39867092060000
H        -0.74564910280000    2.52294922010000   -1.14352158590000
H         0.74476076650000    2.52559595830000    1.13912032980000
H         3.19712288840000    2.59264119680000    1.39475407780000
H         4.57720511820000    0.77426660210000    0.44669188570000
H         3.50793383140000   -1.06695289270000   -0.77433438920000
H        -0.06601069460000   -1.17211706720000   -1.70597268280000
H         2.27710721190000   -2.96801701660000   -0.90168147070000
H         0.84585077810000   -3.40155489750000   -1.95190911200000
$end

$rem
BASIS = 6-31G*
GUI = 2
METHOD = B3LYP
PRINT_ORBITALS false
MOLDEN_FORMAT false
--------------------------------------------------------------

             Standard Nuclear Orientation (Angstroms)
    I     Atom           X                Y                Z
 ----------------------------------------------------------------
    1      C       1.3566648894     2.6291982192     1.3758597380
    2      C       0.8753058432     1.4004711208     1.2455459354
    3      C       1.5132153627     0.3213046058     0.4941950947
    4      C       2.8979360232     0.2658032716     0.3457615836
    5      C       3.5037329394    -0.7750508524    -0.3309932859
    6      C       2.7329101253    -1.7942826514    -0.8658482070
    7      C       1.3582757440    -1.7600747971    -0.7213719428
    8      C       0.7363228658    -0.7102114887    -0.0557495801
    9      C      -0.7359904720    -0.7104461546     0.0554320629
   10      C      -1.3575537428    -1.7618837259     0.7189296204
   11      C      -2.7321247105    -1.7966475619     0.8637672636
   12      C      -3.5032366059    -0.7761027111     0.3318321606
   13      C      -2.8978490877     0.2662397157    -0.3429723470
   14      C      -1.5132126443     0.3220306979    -0.4923447977
   15      C      -0.8754981584     1.4015869903    -1.2432090161
   16      C      -1.3586873897     2.6291270024    -1.3780247248
   17      H       0.8400540943     3.3777761419     1.9514924590
   18      H       2.2707909933     2.9435744589     0.9007055673
   19      H      -0.0682449923     1.1454701736     1.7115712333
   20      H       3.5057805854     1.0411089675     0.7874994490
   21      H       4.5788059652    -0.7975946394    -0.4343112754
   22      H       3.2014720822    -2.6135043585    -1.3910947740
   23      H       0.7483912726    -2.5474631121    -1.1417719857
   24      H      -0.7474379304    -2.5501663879     1.1373222175
   25      H      -3.2003999539    -2.6172370259     1.3871271309
   26      H      -4.5782409443    -0.7988556283     0.4358236327
   27      H      -3.5060869604     1.0423963786    -0.7826230663
   28      H       0.0700601701     1.1476083712    -1.7057649985
   29      H      -2.2749771862     2.9434732315    -0.9070086483
   30      H      -0.8412330859     3.3770433450    -1.9538242881
 ----------------------------------------------------------------

    8    -618.0922202544      6.84e-06  Convergence criterion met
 Total energy in the final basis set =     -618.0922202544

                    Orbital Energies (a.u.)
 --------------------------------------------------------------

 Alpha MOs
 -- Occupied --
-10.1924 -10.1924 -10.1918 -10.1915 -10.1856 -10.1856 -10.1851 -10.1851
-10.1844 -10.1844 -10.1840 -10.1840 -10.1823 -10.1822 -10.1736 -10.1736
 -0.8771  -0.8521  -0.7928  -0.7845  -0.7756  -0.7289  -0.7247  -0.7127
 -0.6304  -0.6231  -0.6160  -0.5784  -0.5600  -0.5508  -0.5187  -0.4952
 -0.4767  -0.4671  -0.4582  -0.4415  -0.4399  -0.4308  -0.4162  -0.4126
 -0.4119  -0.3803  -0.3724  -0.3693  -0.3676  -0.3494  -0.3426  -0.3359
 -0.3251  -0.3026  -0.2778  -0.2610  -0.2408  -0.2213  -0.2202

          Ground-State Mulliken Net Atomic Charges

     Atom                 Charge (a.u.)
  ----------------------------------------
      1 C                    -0.337630
      2 C                    -0.119447
      3 C                     0.140519
      4 C                    -0.199389
      5 C                    -0.122351
      6 C                    -0.132795
      7 C                    -0.163741
      8 C                    -0.012122
      9 C                    -0.012207
     10 C                    -0.163707
     11 C                    -0.132805
     12 C                    -0.122326
     13 C                    -0.199479
     14 C                     0.140870
     15 C                    -0.119169
     16 C                    -0.337953
     17 H                     0.141256
     18 H                     0.138447
     19 H                     0.147425
     20 H                     0.129915
     21 H                     0.127807
     22 H                     0.128358
     23 H                     0.133715
     24 H                     0.133710
     25 H                     0.128358
     26 H                     0.127805
     27 H                     0.129867
     28 H                     0.147423
     29 H                     0.138417
     30 H                     0.141230
  ----------------------------------------
  Sum of atomic charges =     0.000000

                    Cartesian Multipole Moments
 -----------------------------------------------------------------
    Charge (ESU x 10^10)
                 0.0000
    Dipole Moment (Debye)
         X      -0.0000      Y      -0.1506      Z       0.0006
       Tot       0.1506
    Quadrupole Moments (Debye-Ang)
        XX     -84.0955     XY       0.0010     YY     -86.7558
        XZ      -2.9823     YZ       0.0017     ZZ     -95.1510

 Total job time:  53.51s(wall), 53.35s(cpu)
        *  Thank you very much for using Q-Chem.  Have a nice day.  *
