 Q-Chem 5.4, Q-Chem, Inc., Pleasanton, CA (2021)
 Q-Chem 5.4.2 for Intel X86 EM64T Linux

User input:
--------------------------------------------------------------
$molecule
0 1
C           -4.52256794850000       -1.31596419330000       -0.03730849020000
C           -3.82320595870000       -0.18737016870000       -0.06994173230000
C           -2.37475198840000       -0.05872639170000        0.00805531440000
C           -1.51591706360000       -1.14565002060000        0.17471831320000
C           -0.15296421170000       -0.95904776800000        0.23835644590000
C            0.41249295400000        0.31415285220000        0.13901360400000
C            1.85233317470000        0.51467036280000        0.22134443910000
C            2.80420724430000       -0.37807771240000       -0.00362603510000
F            2.67034862020000       -1.64525710290000       -0.37911812240000
F            4.10416836410000       -0.09810545800000        0.10570101110000
C           -0.43803883640000        1.42090854310000       -0.02275328540000
C            0.10309429840000        2.81443949460000       -0.14448529480000
C           -1.80404812480000        1.21135948270000       -0.08552801180000
H           -5.59697926230000       -1.30951973910000       -0.10382553520000
H           -4.06326192990000       -2.28505603620000        0.05390244470000
H           -4.35273330200000        0.75289341810000       -0.16784021690000
H           -1.91391787540000       -2.14413918770000        0.26006217710000
H            0.48510586470000       -1.81613146640000        0.38218437500000
H            2.20737674520000        1.49857410960000        0.48676417670000
H            0.60314423000000        3.11694652790000        0.77558264600000
H           -0.70320375850000        3.51760638050000       -0.33669885370000
H            0.82032732260000        2.88281477570000       -0.96087177620000
H           -2.45612583410000        2.06463793710000       -0.21488882270000
$end

$rem
BASIS = 6-31G*
GUI = 2
METHOD = B3LYP
PRINT_ORBITALS false
MOLDEN_FORMAT false
$end
--------------------------------------------------------------

             Standard Nuclear Orientation (Angstroms)
    I     Atom           X                Y                Z
 ----------------------------------------------------------------
    1      C       4.4386517609    -1.2548602584     0.0422079140
    2      C       3.7132740673    -0.1425739587     0.0655099065
    3      C       2.2620489939    -0.0484315970    -0.0102176770
    4      C       1.4283903410    -1.1566246851    -0.1641601601
    5      C       0.0613250998    -1.0024122936    -0.2263039765
    6      C      -0.5334044889     0.2582049724    -0.1380347831
    7      C      -1.9777012770     0.4243559288    -0.2188193570
    8      C      -2.9080317765    -0.4880389619     0.0171802393
    9      F      -2.7438763290    -1.7480102282     0.4047127460
   10      F      -4.2143973055    -0.2394700489    -0.0917159476
   11      C       0.2914807269     1.3859825337     0.0108382007
   12      C      -0.2816839913     2.7676776149     0.1202601946
   13      C       1.6621339744     1.2088932656     0.0723354961
   14      H       5.5127657117    -1.2227712515     0.1060454881
   15      H       4.0018353434    -2.2352237993    -0.0384096917
   16      H       4.2209785960     0.8106697273     0.1529256938
   17      H       1.8493436721    -2.1463758880    -0.2407087558
   18      H      -0.5569305146    -1.8754789117    -0.3601958633
   19      H      -2.3561425848     1.3970784484    -0.4929784957
   20      H      -0.7906687405     3.0494139326    -0.8015015031
   21      H       0.5084441285     3.4912653327     0.3036304405
   22      H      -0.9985135920     2.8273700171     0.9376813943
   23      H       2.2944501081     2.0783395202     0.1917641214
 ----------------------------------------------------------------

    9    -624.8317699993      5.81e-06  Convergence criterion met
 Total energy in the final basis set =     -624.8317699993

                    Orbital Energies (a.u.)
 --------------------------------------------------------------

 Alpha MOs
 -- Occupied --
-24.7429 -24.7331 -10.3562 -10.2017 -10.2013 -10.1966 -10.1926 -10.1891
-10.1858 -10.1853 -10.1841 -10.1839 -10.1788  -1.2837  -1.2229  -0.8718
 -0.8172  -0.7840  -0.7667  -0.7251  -0.6904  -0.6458  -0.6119  -0.6080
 -0.5729  -0.5453  -0.5284  -0.5180  -0.5016  -0.4715  -0.4568  -0.4411
 -0.4363  -0.4344  -0.4285  -0.4196  -0.4086  -0.4054  -0.3930  -0.3704
 -0.3691  -0.3421  -0.3360  -0.3161  -0.2659  -0.2473  -0.2079

          Ground-State Mulliken Net Atomic Charges

     Atom                 Charge (a.u.)
  ----------------------------------------
      1 C                    -0.354325
      2 C                    -0.114247
      3 C                     0.197294
      4 C                    -0.192051
      5 C                    -0.194143
      6 C                     0.135881
      7 C                    -0.310962
      8 C                     0.550611
      9 F                    -0.234747
     10 F                    -0.249991
     11 C                     0.133278
     12 C                    -0.538537
     13 C                    -0.276854
     14 H                     0.143815
     15 H                     0.142961
     16 H                     0.125848
     17 H                     0.126441
     18 H                     0.135999
     19 H                     0.161451
     20 H                     0.163911
     21 H                     0.160279
     22 H                     0.167353
     23 H                     0.120736
  ----------------------------------------
  Sum of atomic charges =     0.000000

                    Cartesian Multipole Moments
 -----------------------------------------------------------------
    Charge (ESU x 10^10)
                 0.0000
    Dipole Moment (Debye)
         X       0.6010      Y       1.0187      Z      -0.1573
       Tot       1.1932
    Quadrupole Moments (Debye-Ang)
        XX     -73.9661     XY      -1.6864     YY     -67.8090
        XZ       0.8389     YZ       0.7336     ZZ     -76.9099

 Total job time:  50.32s(wall), 45.93s(cpu)
        *  Thank you very much for using Q-Chem.  Have a nice day.  *
