 Q-Chem 5.2, Q-Chem, Inc., Pleasanton, CA (2019)
 Q-Chem 5.2.1 for Intel X86 EM64T Linux

User input:
--------------------------------------------------------------
$molecule
0 1
C         4.29489318510000   -0.83323073170000    0.06622634980000
C         3.29790948290000    0.04304026760000    0.10288883790000
C         1.87507500300000   -0.25885572450000    0.02213081330000
C         1.36314438070000   -1.55909313190000   -0.05520335730000
C         0.00778657460000   -1.78850467800000   -0.13825705330000
C        -0.92302631940000   -0.74556455430000   -0.13428928080000
C        -2.34604536210000   -1.03370406970000   -0.27597857090000
C        -2.94376942600000   -2.08126390590000    0.27642138120000
C        -0.40519375770000    0.55535604140000   -0.04504322690000
N        -1.26613260590000    1.70606412470000    0.01485284840000
O        -2.41331492680000    1.55167169850000    0.38039533000000
O        -0.78594669540000    2.77794633790000   -0.29458337550000
C         0.96116731900000    0.78955891910000    0.02452404530000
H         5.31999268150000   -0.51232538860000    0.13066903640000
H         4.14029681580000   -1.89403428660000   -0.03148184580000
H         3.52655013640000    1.09703975190000    0.19599119530000
H         2.03745570690000   -2.40083726170000   -0.05568089220000
H        -0.35688901690000   -2.80030408960000   -0.22837722870000
H        -2.92732080810000   -0.33260919860000   -0.85859970150000
H        -2.41801776680000   -2.77118930800000    0.91579039690000
H        -3.99449274520000   -2.26389328080000    0.13668419150000
H         1.30037584010000    1.81322053150000    0.09235968930000
$end

$rem
BASIS = 6-31G*
GUI = 2
METHOD = B3LYP
PRINT_ORBITALS false
MOLDEN_FORMAT false
--------------------------------------------------------------

             Standard Nuclear Orientation (Angstroms)
    I     Atom           X                Y                Z
 ----------------------------------------------------------------
    1      C       4.3234357646    -0.2399517293     0.0678219921
    2      C       3.2243876541     0.5038693234     0.1124873808
    3      C       1.8507600580     0.0270452081     0.0235660884
    4      C       1.5060291093    -1.3260060679    -0.0717421955
    5      C       0.1902595264    -1.7224346670    -0.1618372953
    6      C      -0.8639922926    -0.8045557676    -0.1475573569
    7      C      -2.2394392341    -1.2669697955    -0.2972317002
    8      C      -2.7018888349    -2.3882419544     0.2400675519
    9      C      -0.5135090223     0.5497594163    -0.0403114881
   10      N      -1.5120336556     1.5825850660     0.0314664138
   11      O      -2.6313319483     1.2808859040     0.3915143995
   12      O      -1.1695982678     2.7101142357    -0.2629427249
   13      C       0.8125957994     0.9524946677     0.0363925166
   14      H       5.3001083167     0.2060775730     0.1394506459
   15      H       4.3032235757    -1.3104171231    -0.0437415283
   16      H       3.3189195114     1.5769271184     0.2195864322
   17      H       2.2805698676    -2.0764953294    -0.0807785077
   18      H      -0.0445294538    -2.7707217731    -0.2658385472
   19      H      -2.9031920173    -0.6368185646    -0.8727351435
   20      H      -2.0947048103    -3.0150061174     0.8722849593
   21      H      -3.7212125829    -2.6993384293     0.0948176143
   22      H       1.0206637436     2.0096442641     0.1181828181
 ----------------------------------------------------------------

   10    -591.5392061519      2.80e-06  Convergence criterion met
 Total energy in the final basis set =     -591.5392061519

                    Orbital Energies (a.u.)
 --------------------------------------------------------------

 Alpha MOs
 -- Occupied --
-19.1779 -19.1759 -14.5714 -10.2505 -10.2289 -10.2191 -10.2152 -10.2144
-10.2115 -10.2060 -10.2017 -10.1959 -10.1907  -1.2399  -1.0608  -0.9020
 -0.8344  -0.8121  -0.7807  -0.7425  -0.7038  -0.6510  -0.6231  -0.5874
 -0.5714  -0.5441  -0.5347  -0.5175  -0.5126  -0.4860  -0.4819  -0.4562
 -0.4413  -0.4358  -0.4062  -0.3995  -0.3906  -0.3673  -0.3614  -0.3362
 -0.3094  -0.3081  -0.2934  -0.2820  -0.2721  -0.2344

          Ground-State Mulliken Net Atomic Charges

     Atom                 Charge (a.u.)
  ----------------------------------------
      1 C                    -0.351560
      2 C                    -0.108527
      3 C                     0.174221
      4 C                    -0.162374
      5 C                    -0.195348
      6 C                     0.139792
      7 C                    -0.087459
      8 C                    -0.342092
      9 C                     0.222997
     10 N                     0.367386
     11 O                    -0.398436
     12 O                    -0.396436
     13 C                    -0.230061
     14 H                     0.154179
     15 H                     0.147023
     16 H                     0.139403
     17 H                     0.141044
     18 H                     0.147015
     19 H                     0.160370
     20 H                     0.146021
     21 H                     0.153946
     22 H                     0.178894
  ----------------------------------------
  Sum of atomic charges =     0.000000

                    Cartesian Multipole Moments
 -----------------------------------------------------------------
    Charge (ESU x 10^10)
                 0.0000
    Dipole Moment (Debye)
         X       2.8955      Y      -3.2108      Z      -0.1941
       Tot       4.3279
    Quadrupole Moments (Debye-Ang)
        XX     -71.0850     XY       6.3830     YY     -74.6281
        XZ       2.2525     YZ       0.3352     ZZ     -76.5119

 Total job time:  33.52s(wall), 33.40s(cpu)
        *  Thank you very much for using Q-Chem.  Have a nice day.  *
