 Q-Chem 5.2, Q-Chem, Inc., Pleasanton, CA (2019)
 Q-Chem 5.2.1 for Intel X86 EM64T Linux

User input:
--------------------------------------------------------------
$molecule
0 1
C         4.30889952540000    0.71115161780000   -0.00215059220000
C         3.58132034280000   -0.40242615200000   -0.00208771450000
C         2.14535106790000   -0.44898487510000    0.00016423490000
C         1.35431599180000   -1.57275496120000    0.00143762670000
C        -0.01826100990000   -1.29815828140000    0.00254493080000
C        -0.29588658380000    0.04736535240000    0.00212133180000
C        -1.55461371740000    0.73609617920000    0.00183042870000
C        -2.75748073590000    0.17212538180000   -0.00040781710000
F        -3.02753191280000   -1.12871414700000   -0.00251421280000
F        -3.89512586310000    0.86104233370000   -0.00098946580000
S         1.16764895200000    0.98581439480000    0.00079608700000
H         5.38383839430000    0.68444852180000   -0.00434222680000
H         3.84564516810000    1.68424853870000   -0.00015263750000
H         4.06233685620000   -1.37237063820000   -0.00399886160000
H         1.76049450980000   -2.56879882410000    0.00147048110000
H        -0.77728207240000   -2.05855422050000    0.00358047600000
H        -1.52926697950000    1.81513912100000    0.00302071560000
$end

$rem
BASIS = 6-31G*
GUI = 2
METHOD = B3LYP
PRINT_ORBITALS false
MOLDEN_FORMAT false
--------------------------------------------------------------

             Standard Nuclear Orientation (Angstroms)
    I     Atom           X                Y                Z
 ----------------------------------------------------------------
    1      C       4.1978713598    -0.7243302699     0.0019460172
    2      C       3.4714207545     0.3899840656     0.0019522291
    3      C       2.0354992818     0.4379976652    -0.0002301350
    4      C       1.2456030844     1.5625686388    -0.0014311098
    5      C      -0.1272514677     1.2893627401    -0.0024818050
    6      C      -0.4062400775    -0.0558789436    -0.0020867955
    7      C      -1.6656643281    -0.7433341653    -0.0017575402
    8      C      -2.8679592425    -0.1781450608     0.0005552896
    9      F      -3.1366922529     1.1229673325     0.0027148764
   10      F      -4.0063017237    -0.8659090890     0.0011695391
   11      S       1.0563439916    -0.9958103039    -0.0008601273
   12      H       5.2728368337    -0.6987163137     0.0040874722
   13      H       3.7336312663    -1.6969572897    -0.0000601588
   14      H       3.9534197971     1.3594406595     0.0038706567
   15      H       1.6527905201     2.5582004775    -0.0014523222
   16      H      -0.8855018042     2.0505273114    -0.0034577310
   17      H      -1.6414108772    -1.8224021955    -0.0029825221
 ----------------------------------------------------------------

   10    -906.2730498874      2.38e-06  Convergence criterion met
 Total energy in the final basis set =     -906.2730498874

                    Orbital Energies (a.u.)
 --------------------------------------------------------------

 Alpha MOs
 -- Occupied --
-88.9081 -24.7477 -24.7401 -10.3617 -10.2304 -10.2196 -10.2138 -10.1996
-10.1933 -10.1908 -10.1827  -7.9701  -5.9340  -5.9305  -5.9269  -1.2891
 -1.2295  -0.8947  -0.8198  -0.7836  -0.7422  -0.7109  -0.6491  -0.6077
 -0.5807  -0.5773  -0.5371  -0.5230  -0.5195  -0.4872  -0.4552  -0.4473
 -0.4453  -0.4333  -0.4176  -0.3979  -0.3928  -0.3810  -0.3709  -0.3417
 -0.3248  -0.2720  -0.2570  -0.1992

          Ground-State Mulliken Net Atomic Charges

     Atom                 Charge (a.u.)
  ----------------------------------------
      1 C                    -0.375996
      2 C                    -0.055708
      3 C                    -0.137451
      4 C                    -0.138928
      5 C                    -0.134256
      6 C                    -0.115688
      7 C                    -0.264603
      8 C                     0.555878
      9 F                    -0.235788
     10 F                    -0.243652
     11 S                     0.246193
     12 H                     0.147347
     13 H                     0.154194
     14 H                     0.139007
     15 H                     0.140747
     16 H                     0.147177
     17 H                     0.171528
  ----------------------------------------
  Sum of atomic charges =     0.000000

                    Cartesian Multipole Moments
 -----------------------------------------------------------------
    Charge (ESU x 10^10)
                 0.0000
    Dipole Moment (Debye)
         X       0.6729      Y       0.3317      Z      -0.0006
       Tot       0.7502
    Quadrupole Moments (Debye-Ang)
        XX     -66.7241     XY       1.9911     YY     -63.3019
        XZ       0.0152     YZ       0.0022     ZZ     -71.6978

 Total job time:  21.06s(wall), 20.97s(cpu)
        *  Thank you very much for using Q-Chem.  Have a nice day.  *
