 Q-Chem 5.2, Q-Chem, Inc., Pleasanton, CA (2019)
 Q-Chem 5.2.1 for Intel X86 EM64T Linux

User input:
--------------------------------------------------------------
$molecule
0 1
C         3.69377786660000    1.12555702480000   -0.41873375180000
C         2.89846055130000    0.22373347480000    0.13855165700000
C         1.43471867130000    0.29889246810000    0.13343923390000
C         0.81842758580000    1.53423834100000    0.32142310710000
C        -0.55294893550000    1.63300078340000    0.36055212000000
C        -1.35824480150000    0.50408420170000    0.21365003120000
C        -2.80887517030000    0.72125493710000    0.22700566880000
C        -3.67654877240000    0.21519574340000   -0.63716029690000
C        -0.75354549310000   -0.74861857320000    0.05804135080000
C        -1.57674904310000   -2.00404901680000    0.01734469670000
C         0.63958863110000   -0.84396399820000   -0.00919931470000
C         1.28119524110000   -2.17993218240000   -0.26082349810000
H         4.76662000010000    1.04486176380000   -0.36970691340000
H         3.30329441020000    1.97095688800000   -0.96077607570000
H         3.33220968010000   -0.62297425510000    0.65536249640000
H         1.42854137490000    2.41444302900000    0.45909015090000
H        -1.02056874000000    2.59769973460000    0.49879094890000
H        -3.15546907890000    1.41803776170000    0.98182871510000
H        -3.37315239520000   -0.43685362700000   -1.43848892510000
H        -4.72553337810000    0.45611126330000   -0.59018784320000
H        -2.58177826840000   -1.81684927420000    0.38447860880000
H        -1.12069507420000   -2.77463217590000    0.63614600710000
H        -1.65094514710000   -2.39115882590000   -0.99940119760000
H         0.69550185230000   -2.76118098270000   -0.96890650350000
H         1.35449599020000   -2.75208825340000    0.66552666700000
H         2.27966669570000   -2.05923322010000   -0.67086800370000
$end

$rem
BASIS = 6-31G*
GUI = 2
METHOD = B3LYP
PRINT_ORBITALS false
MOLDEN_FORMAT false
--------------------------------------------------------------

             Standard Nuclear Orientation (Angstroms)
    I     Atom           X                Y                Z
 ----------------------------------------------------------------
    1      C       3.7737741132    -0.8289884564     0.4946817281
    2      C       2.9130866623    -0.0387999571    -0.1307793991
    3      C       1.4597371289    -0.2281026754    -0.1183328367
    4      C       0.9431823764    -1.5189586522    -0.2083000498
    5      C      -0.4160080982    -1.7279224214    -0.2382008801
    6      C      -1.3080877798    -0.6577475926    -0.1794302985
    7      C      -2.7371362364    -0.9886009214    -0.1742774457
    8      C      -3.6462710898    -0.4862450567     0.6484306477
    9      C      -0.8042825606     0.6469153327    -0.1230875115
   10      C      -1.7235852692     1.8331103974    -0.1800936479
   11      C       0.5767208927     0.8563913735    -0.0649153910
   12      C       1.1102945689     2.2542159944     0.0805845133
   13      H       4.8372253866    -0.6683314912     0.4384115925
   14      H       3.4479819878    -1.6574622344     1.1017062989
   15      H       3.2817777551     0.7963464808    -0.7127957525
   16      H       1.6211350721    -2.3565679774    -0.2771629874
   17      H      -0.8058288417    -2.7342279182    -0.2999370672
   18      H      -3.0241254805    -1.7673581740    -0.8718201245
   19      H      -3.3990787305     0.2482978240     1.3958849991
   20      H      -4.6728801801    -0.8117686003     0.6215308250
   21      H      -2.7089321147     1.5393840491    -0.5304238111
   22      H      -1.3261625854     2.5863769604    -0.8578424101
   23      H      -1.8331580421     2.2915278886     0.8032569970
   24      H       0.4771792608     2.8412454430     0.7415155907
   25      H       1.1432947655     2.7561509698    -0.8878329924
   26      H       2.1130234969     2.2447825912     0.4978322688
 ----------------------------------------------------------------

    8    -465.6678881171      4.46e-06  Convergence criterion met
 Total energy in the final basis set =     -465.6678881171

                    Orbital Energies (a.u.)
 --------------------------------------------------------------

 Alpha MOs
 -- Occupied --
-10.1869 -10.1865 -10.1862 -10.1858 -10.1853 -10.1845 -10.1769 -10.1768
-10.1766 -10.1758 -10.1758 -10.1713  -0.8657  -0.8069  -0.7800  -0.7608
 -0.7284  -0.6916  -0.6703  -0.6217  -0.5766  -0.5659  -0.5362  -0.4907
 -0.4874  -0.4581  -0.4440  -0.4306  -0.4235  -0.4141  -0.3993  -0.3959
 -0.3882  -0.3854  -0.3801  -0.3539  -0.3463  -0.3272  -0.3211  -0.2911
 -0.2624  -0.2320  -0.2122

          Ground-State Mulliken Net Atomic Charges

     Atom                 Charge (a.u.)
  ----------------------------------------
      1 C                    -0.336877
      2 C                    -0.139258
      3 C                     0.108393
      4 C                    -0.183128
      5 C                    -0.185293
      6 C                     0.103360
      7 C                    -0.149378
      8 C                    -0.329292
      9 C                     0.071424
     10 C                    -0.540221
     11 C                     0.059672
     12 C                    -0.536797
     13 H                     0.140342
     14 H                     0.144708
     15 H                     0.136733
     16 H                     0.125768
     17 H                     0.122088
     18 H                     0.135108
     19 H                     0.147603
     20 H                     0.141096
     21 H                     0.169216
     22 H                     0.154306
     23 H                     0.156723
     24 H                     0.160693
     25 H                     0.160859
     26 H                     0.162154
  ----------------------------------------
  Sum of atomic charges =     0.000000

                    Cartesian Multipole Moments
 -----------------------------------------------------------------
    Charge (ESU x 10^10)
                 0.0000
    Dipole Moment (Debye)
         X      -0.0784      Y       0.4439      Z      -0.0617
       Tot       0.4550
    Quadrupole Moments (Debye-Ang)
        XX     -67.1832     XY       0.7004     YY     -67.9808
        XZ      -0.3018     YZ       0.3070     ZZ     -73.9986

 Total job time:  30.22s(wall), 30.12s(cpu)
        *  Thank you very much for using Q-Chem.  Have a nice day.  *
