 Q-Chem 5.2, Q-Chem, Inc., Pleasanton, CA (2019)
 Q-Chem 5.2.1 for Intel X86 EM64T Linux

User input:
--------------------------------------------------------------
$molecule
0 1
C        -4.47079361080000    0.49425283020000   -0.72064859400000
C        -3.67761408660000   -0.54919580870000   -0.51015232000000
C        -2.26287304140000   -0.51464942070000   -0.15910893080000
C        -1.60407394970000   -1.71369994080000    0.11453642440000
C        -0.26673227840000   -1.72086416540000    0.45651246610000
C         0.45991783810000   -0.54223578210000    0.53179184670000
C         1.91197954340000   -0.58224406170000    0.92173706340000
C         2.83361324160000   -0.45643406930000   -0.28643143350000
O         2.47596432980000   -0.39207714300000   -1.42267372150000
O         4.14633187930000   -0.42848507560000    0.02687464610000
C        -0.17826137930000    0.67129702160000    0.24609973060000
C         0.55717107360000    1.93902893200000    0.28177502570000
C         0.05779063930000    3.07799021660000    0.73897976720000
C        -1.52658888820000    0.66512291020000   -0.08883610440000
H        -5.50889946140000    0.36507740780000   -0.97484480640000
H        -4.12799392240000    1.51219899920000   -0.65034921220000
H        -4.09324696330000   -1.54649838310000   -0.59206347100000
H        -2.14701401800000   -2.64633437130000    0.05881360120000
H         0.22249024840000   -2.66126846940000    0.66941486250000
H         2.13812053440000   -1.53534772930000    1.41018546070000
H         2.14344208240000    0.22630347390000    1.62228866620000
H         4.30872819250000   -0.49200604560000    0.97698907900000
H         1.56578113060000    1.91165172970000   -0.10923949260000
H        -0.93566253440000    3.13886180530000    1.15214758960000
H         0.62846515820000    3.99104253910000    0.73258387050000
H        -1.99791723710000    1.60538062230000   -0.32717961850000
$end

$rem
BASIS = 6-31G*
GUI = 2
METHOD = B3LYP
PRINT_ORBITALS false
MOLDEN_FORMAT false
--------------------------------------------------------------

             Standard Nuclear Orientation (Angstroms)
    I     Atom           X                Y                Z
 ----------------------------------------------------------------
    1      C       4.4799939168    -0.2894528316    -0.5168006848
    2      C       3.6443253047     0.7085087113    -0.2561126902
    3      C       2.2136644995     0.6045858295     0.0052813304
    4      C       1.5037071759     1.7546971292     0.3514384774
    5      C       0.1495122917     1.6951071588     0.6123732129
    6      C      -0.5435359498     0.4967131223     0.5324475533
    7      C      -2.0159495134     0.4622877338     0.8373316637
    8      C      -2.8631295780     0.4300708846    -0.4300104202
    9      O      -2.4396857569     0.4844211389    -1.5439415111
   10      O      -4.1900408151     0.3389234787    -0.1994225045
   11      C       0.1469758537    -0.6671705524     0.1717221657
   12      C      -0.5498374653    -1.9506366655     0.0434889752
   13      C      -0.0423436195    -3.1153204621     0.4198019459
   14      C       1.5113221226    -0.5947082246    -0.0803009961
   15      H       5.5263857629    -0.1102120969    -0.6954137436
   16      H       4.1653192142    -1.3177788773    -0.5636345164
   17      H       4.0329773899     1.7192523184    -0.2184368725
   18      H       2.0199070834     2.7017916514     0.4165963876
   19      H      -0.3797931815     2.5979883300     0.8837911062
   20      H      -2.2987712807     1.3579388895     1.3994251088
   21      H      -2.2617886225    -0.4155164902     1.4432354920
   22      H      -4.4080395157     0.3065895032     0.7410858646
   23      H      -1.5349657123    -1.9112641296    -0.4025023387
   24      H       0.9274340188    -3.1905362663     0.8837374190
   25      H      -0.5832946348    -4.0376531945     0.2931165581
   26      H       2.0242118190    -1.4954475775    -0.3780515392
 ----------------------------------------------------------------

    9    -614.9130867197      4.25e-06  Convergence criterion met
 Total energy in the final basis set =     -614.9130867197

                    Orbital Energies (a.u.)
 --------------------------------------------------------------

 Alpha MOs
 -- Occupied --
-19.1979 -19.1368 -10.3216 -10.2152 -10.1999 -10.1963 -10.1944 -10.1922
-10.1897 -10.1891 -10.1873 -10.1856 -10.1839 -10.1793  -1.1072  -1.0264
 -0.8739  -0.8143  -0.7920  -0.7654  -0.7299  -0.7072  -0.6360  -0.6302
 -0.6088  -0.5718  -0.5530  -0.5247  -0.5011  -0.4959  -0.4719  -0.4604
 -0.4507  -0.4430  -0.4346  -0.4223  -0.4180  -0.3996  -0.3908  -0.3763
 -0.3702  -0.3630  -0.3432  -0.3350  -0.3203  -0.3054  -0.2851  -0.2749
 -0.2364  -0.2208

          Ground-State Mulliken Net Atomic Charges

     Atom                 Charge (a.u.)
  ----------------------------------------
      1 C                    -0.350111
      2 C                    -0.116578
      3 C                     0.189510
      4 C                    -0.194168
      5 C                    -0.185313
      6 C                     0.159525
      7 C                    -0.533204
      8 C                     0.612812
      9 O                    -0.421438
     10 O                    -0.564709
     11 C                     0.126269
     12 C                    -0.146197
     13 C                    -0.336367
     14 C                    -0.252817
     15 H                     0.144559
     16 H                     0.143524
     17 H                     0.126995
     18 H                     0.128176
     19 H                     0.123221
     20 H                     0.180930
     21 H                     0.181217
     22 H                     0.413471
     23 H                     0.147088
     24 H                     0.146422
     25 H                     0.145511
     26 H                     0.131673
  ----------------------------------------
  Sum of atomic charges =     0.000000

                    Cartesian Multipole Moments
 -----------------------------------------------------------------
    Charge (ESU x 10^10)
                 0.0000
    Dipole Moment (Debye)
         X      -0.2004      Y      -0.0968      Z       3.9204
       Tot       3.9268
    Quadrupole Moments (Debye-Ang)
        XX     -73.9158     XY       0.5753     YY     -73.7039
        XZ     -13.7284     YZ       2.8376     ZZ     -87.3100

 Total job time:  40.15s(wall), 39.29s(cpu)
        *  Thank you very much for using Q-Chem.  Have a nice day.  *
