 Q-Chem 5.2, Q-Chem, Inc., Pleasanton, CA (2019)
 Q-Chem 5.2.1 for Intel X86 EM64T Linux

User input:
--------------------------------------------------------------
$molecule
0 1
C        -2.98059071290000   -3.21447407530000    0.17405525570000
C        -1.73303939350000   -2.81221222770000   -0.03430551950000
C        -1.25419036930000   -1.43359026290000   -0.05055324400000
C        -2.11055284280000   -0.33374803130000   -0.04972361330000
C        -1.63463895860000    0.97612081210000   -0.07359855380000
C        -2.51571098130000    2.13974807220000   -0.08087792850000
C        -3.82339533010000    2.14258547700000    0.14581716930000
C        -0.25217198870000    1.17864314020000   -0.10048956970000
C         0.59565398290000    0.09320705040000   -0.09807535650000
S         2.36682223500000    0.37306807200000   -0.08792041710000
C         2.75397142230000    0.45068322510000    1.68834011850000
O         3.02994149550000   -0.77680778230000   -0.64058887900000
O         2.64477426590000    1.66118193170000   -0.66314074930000
C         0.12350544980000   -1.20047716500000   -0.07677334160000
H        -3.23739061440000   -4.25962011380000    0.17129010670000
H        -3.79212276830000   -2.53233066420000    0.36138528970000
H        -0.96129279180000   -3.55327576190000   -0.19924173140000
H        -3.17508073320000   -0.50158464970000   -0.05753621900000
H        -2.01315621280000    3.07768884230000   -0.27997415540000
H        -4.38046403820000    1.24868649500000    0.36864880040000
H        -4.39154226970000    3.05636473380000    0.12345474620000
H         0.17144046720000    2.17031344440000   -0.14143829860000
H         2.47990381720000   -0.49694980700000    2.13293196860000
H         2.19071033140000    1.26815004840000    2.11881188980000
H         3.81783464450000    0.62584858090000    1.78784583140000
H         0.83227656630000   -2.01389902490000   -0.09988651510000
$end

$rem
BASIS = 6-31G*
GUI = 2
METHOD = B3LYP
PRINT_ORBITALS false
MOLDEN_FORMAT false
--------------------------------------------------------------

             Standard Nuclear Orientation (Angstroms)
    I     Atom           X                Y                Z
 ----------------------------------------------------------------
    1      C       3.3882051634     2.7105897324     0.1541821183
    2      C       2.0949363874     2.5066207182    -0.0636839313
    3      C       1.4066481408     1.2196612589    -0.0760749790
    4      C       2.0805396424    -0.0004333265    -0.0602713214
    5      C       1.4059616458    -1.2200022382    -0.0806826132
    6      C       2.0943575672    -2.5070185815    -0.0723587791
    7      C       3.3835440057    -2.7124187050     0.1669029825
    8      C       0.0091118431    -1.2042394483    -0.1196121179
    9      C      -0.6586277671     0.0003171179    -0.1320017597
   10      S      -2.4517913567     0.0007036437    -0.1371478985
   11      C      -2.8614529658    -0.0020397300     1.6357536598
   12      O      -2.9222936669     1.2358519076    -0.7032047906
   13      O      -2.9227438970    -1.2324756335    -0.7071002235
   14      C       0.0097235625     1.2044694730    -0.1141001283
   15      H       3.8052209697     3.7027272686     0.1474736253
   16      H       4.0815148199     1.9114664382     0.3534812221
   17      H       1.4499399947     3.3578921006    -0.2405698262
   18      H       3.1582443812    -0.0010426917    -0.0588851248
   19      H       1.4530949038    -3.3564000556    -0.2705172994
   20      H       4.0715622961    -1.9148746499     0.3895892721
   21      H       3.8020527402    -3.7038854787     0.1556056824
   22      H      -0.5639288660    -2.1178273478    -0.1585453809
   23      H      -2.4464402510     0.8944692765     2.0771371401
   24      H      -2.4365792767    -0.8941928620     2.0766234216
   25      H      -3.9404289749    -0.0080795361     1.7261059528
   26      H      -0.5629738702     2.1184414198    -0.1490109801
 ----------------------------------------------------------------

    9    -974.9284904734      2.91e-06  Convergence criterion met
 Total energy in the final basis set =     -974.9284904734

                    Orbital Energies (a.u.)
 --------------------------------------------------------------

 Alpha MOs
 -- Occupied --
-89.0892 -19.1322 -19.1321 -10.2249 -10.2202 -10.2178 -10.2178 -10.2121
-10.2121 -10.2090 -10.2045 -10.2045 -10.1949 -10.1949  -8.1192  -6.0835
 -6.0827  -6.0823  -1.1119  -1.0023  -0.8932  -0.8220  -0.8127  -0.7727
 -0.7488  -0.7459  -0.6687  -0.6420  -0.6287  -0.5705  -0.5587  -0.5309
 -0.5028  -0.4982  -0.4858  -0.4773  -0.4640  -0.4593  -0.4414  -0.4379
 -0.4279  -0.4212  -0.4032  -0.3964  -0.3852  -0.3763  -0.3557  -0.3327
 -0.3300  -0.3147  -0.3093  -0.2957  -0.2875  -0.2515  -0.2399

          Ground-State Mulliken Net Atomic Charges

     Atom                 Charge (a.u.)
  ----------------------------------------
      1 C                    -0.346979
      2 C                    -0.112825
      3 C                     0.180522
      4 C                    -0.233592
      5 C                     0.180039
      6 C                    -0.113141
      7 C                    -0.346679
      8 C                    -0.221763
      9 C                    -0.150825
     10 S                     1.077155
     11 C                    -0.625361
     12 O                    -0.521863
     13 O                    -0.521858
     14 C                    -0.222088
     15 H                     0.153232
     16 H                     0.146055
     17 H                     0.139416
     18 H                     0.136754
     19 H                     0.139665
     20 H                     0.146017
     21 H                     0.153207
     22 H                     0.175192
     23 H                     0.198601
     24 H                     0.198485
     25 H                     0.217454
     26 H                     0.175178
  ----------------------------------------
  Sum of atomic charges =     0.000000

                    Cartesian Multipole Moments
 -----------------------------------------------------------------
    Charge (ESU x 10^10)
                 0.0000
    Dipole Moment (Debye)
         X       3.9286      Y      -0.0086      Z       3.5056
       Tot       5.2652
    Quadrupole Moments (Debye-Ang)
        XX     -90.3876     XY       0.0119     YY     -84.0586
        XZ     -10.3122     YZ       0.0351     ZZ     -91.1196

 Total job time:  42.00s(wall), 41.86s(cpu)
        *  Thank you very much for using Q-Chem.  Have a nice day.  *
