 Q-Chem 5.2, Q-Chem, Inc., Pleasanton, CA (2019)
 Q-Chem 5.2.1 for Intel X86 EM64T Linux

User input:
--------------------------------------------------------------
$molecule
0 1
C        -0.04961000900000    2.71537462970000   -1.64942443890000
C        -0.45877250900000    2.27085609760000   -0.46619785590000
C        -0.30249944910000    0.93957106110000    0.10042285590000
C        -1.05439948460000    0.63837884220000    1.23516264860000
C        -1.00547882840000   -0.59265886660000    1.86821172630000
O        -1.69912580140000   -0.87618785400000    3.01430252750000
C        -3.03006162350000   -0.42068614720000    3.15978331150000
C        -4.03504022600000   -1.54935307610000    2.90079728500000
C        -3.91652448320000   -2.17143440830000    1.50841386090000
C        -4.15743950160000   -1.18469009360000    0.36774882430000
C        -4.21840593380000   -1.90100292190000   -0.97906875160000
C        -4.38963187920000   -0.94804219490000   -2.16282647750000
C        -3.19971632160000   -0.02014172110000   -2.42230563720000
C        -1.87333834320000   -0.72939013480000   -2.69295949810000
C        -1.88894736220000   -1.60869810910000   -3.94085600030000
C        -0.50771859960000   -2.18314238770000   -4.23189555700000
C        -0.15581512470000   -1.58917202300000    1.35389450670000
C        -0.10639739940000   -2.89042939450000    2.00491989560000
C         0.42255817770000   -4.00429280040000    1.51103593900000
C         0.61620509470000   -1.28638829760000    0.23411802310000
C         0.56666188200000   -0.05411318050000   -0.39783173690000
O         1.33624322950000    0.26130204800000   -1.47528025410000
C         2.38206932770000   -0.60372407960000   -1.86689055880000
C         3.30433083920000    0.14039461600000   -2.83426881790000
C         4.29680767400000    1.06410215800000   -2.12509711380000
C         3.62146592560000    2.28450010520000   -1.50218156410000
C         4.53783120400000    3.10035882570000   -0.59120850110000
C         5.06591304980000    2.34831753210000    0.63491156610000
C         4.00342349270000    1.62511766320000    1.46469603270000
C         2.92076064910000    2.54432398890000    2.02329704400000
C         1.97264124780000    1.78802083260000    2.95115782750000
C         0.85636632300000    2.68181397690000    3.47507816130000
H        -0.24289725310000    3.73152576650000   -1.95163996230000
H         0.47896812970000    2.09663138070000   -2.34885663840000
H        -1.00627426550000    2.95250907220000    0.17630391520000
H        -1.68582750460000    1.41788526140000    1.63726039130000
H        -3.24405357180000    0.42215426020000    2.49920157590000
H        -3.12795025820000   -0.07957395800000    4.19652171710000
H        -5.03875161040000   -1.14272052830000    3.04284250430000
H        -3.87587126920000   -2.33107406980000    3.64610850830000
H        -4.64581547760000   -2.98254871520000    1.43695258650000
H        -2.92413101200000   -2.61351464730000    1.39632780480000
H        -3.34922206080000   -0.45362228040000    0.34273047870000
H        -5.09621022650000   -0.65014800690000    0.53648525890000
H        -5.06204251910000   -2.59666965080000   -0.97057484900000
H        -3.31171029940000   -2.49349297070000   -1.11023981980000
H        -5.27427978070000   -0.32927125090000   -1.98930497640000
H        -4.58090285470000   -1.53858580750000   -3.06105229250000
H        -3.06227846280000    0.64620394060000   -1.56837286890000
H        -3.44303950280000    0.60751125830000   -3.28387062600000
H        -1.59329276820000   -1.33120320960000   -1.82637609370000
H        -1.10316480570000    0.03559406350000   -2.81277341390000
H        -2.22297917530000   -1.01624391480000   -4.79611392590000
H        -2.59443544290000   -2.43076671650000   -3.80820687540000
H         0.21288522640000   -1.38234110280000   -4.38554590840000
H        -0.52717712650000   -2.80431159850000   -5.12485361460000
H        -0.16984135050000   -2.79455451130000   -3.39703793650000
H        -0.58102288840000   -2.91419882680000    2.97631353690000
H         0.88870493510000   -4.05392709350000    0.54123155160000
H         0.40081175740000   -4.92573602480000    2.06711874420000
H         1.27347964670000   -2.05209680800000   -0.14318962760000
H         1.95943593690000   -1.49021054660000   -2.36122397040000
H         2.95758302260000   -0.93282021960000   -0.99126258010000
H         2.68874739860000    0.71642485960000   -3.52681798230000
H         3.85714979240000   -0.60470878090000   -3.40996154490000
H         5.04954874310000    1.39609564600000   -2.84453042650000
H         4.81200466540000    0.48920491210000   -1.35387990000000
H         2.74807438880000    1.96789481840000   -0.93728983140000
H         3.26468857620000    2.93463651900000   -2.30518874770000
H         3.98442235160000    3.97975102490000   -0.25547574730000
H         5.39649519250000    3.45666723120000   -1.16699865700000
H         5.58141767930000    3.06873773590000    1.27560607580000
H         5.81129538360000    1.61569992240000    0.31627905350000
H         4.50658283330000    1.12883902570000    2.29955992220000
H         3.53023292800000    0.84498044620000    0.86637130550000
H         2.34153943330000    2.97429431080000    1.20415679890000
H         3.38806078870000    3.36626521400000    2.57156382810000
H         2.53638991510000    1.38032441170000    3.79377441250000
H         1.53453753490000    0.94690350650000    2.40891211230000
H         1.26429534770000    3.50072229480000    4.06431209430000
H         0.17436975740000    2.11138267070000    4.10136314950000
H         0.29305454210000    3.10452101700000    2.64635472760000
$end

$rem
BASIS = 6-31G*
GUI = 2
METHOD = B3LYP
PRINT_ORBITALS false
MOLDEN_FORMAT false
--------------------------------------------------------------

             Standard Nuclear Orientation (Angstroms)
    I     Atom           X                Y                Z
 ----------------------------------------------------------------
    1      C      -1.2183255354     1.2304467465    -2.6396086077
    2      C      -0.6158708765     0.1069508419    -2.2656551883
    3      C      -0.1385940933    -0.2629672618    -0.9415828272
    4      C       0.7037616799    -1.3705036879    -0.8549535620
    5      C       1.2338501410    -1.8238983678     0.3417242114
    6      O       2.0166243538    -2.9430751226     0.4405516258
    7      C       3.0042066851    -3.1973387890    -0.5392788457
    8      C       4.4007781522    -2.8193164891    -0.0317041539
    9      C       4.5309738802    -1.3505896283     0.3753010618
   10      C       4.2661510251    -0.3675948581    -0.7632995054
   11      C       4.6003692194     1.0628340836    -0.3474752661
   12      C       4.2871862479     2.0956326376    -1.4309781035
   13      C       2.7995310621     2.2651649693    -1.7509290287
   14      C       1.9262244255     2.6784675621    -0.5668336560
   15      C       2.2964027114     4.0352885418     0.0270322388
   16      C       1.3128532739     4.4519317853     1.1140106466
   17      C       0.9075821759    -1.1462598341     1.5307760669
   18      C       1.4693829575    -1.6076518630     2.7921420696
   19      C       1.4827955662    -0.9451953589     3.9433929260
   20      C       0.0470239133    -0.0530444802     1.4538849527
   21      C      -0.4830309177     0.3990680885     0.2559896757
   22      O      -1.3457610086     1.4485498272     0.1727887466
   23      C      -1.9023964655     1.9933586862     1.3512289594
   24      C      -3.0907904393     2.8796098492     0.9738985157
   25      C      -4.3698125417     2.0841590582     0.7045829063
   26      C      -4.2964298924     1.2740213809    -0.5883878356
   27      C      -5.4526424871     0.2911930911    -0.7685091427
   28      C      -5.5470195340    -0.7989284995     0.3041207343
   29      C      -4.2472131385    -1.5568633050     0.5806754940
   30      C      -3.6768109436    -2.2757721266    -0.6387283088
   31      C      -2.4611017050    -3.1221299979    -0.2678106659
   32      C      -1.8503597404    -3.8043637870    -1.4847657671
   33      H      -1.5124652783     1.3812652776    -3.6652756572
   34      H      -1.4337915420     2.0273831891    -1.9541086697
   35      H      -0.4136098246    -0.6430692918    -3.0231363716
   36      H       0.9293334172    -1.8991894595    -1.7701709913
   37      H       2.7952202982    -2.6684710101    -1.4715686603
   38      H       2.9707917258    -4.2742665819    -0.7389691095
   39      H       5.1181760708    -3.0518510264    -0.8217872709
   40      H       4.6338707054    -3.4424750736     0.8338895895
   41      H       5.5445363324    -1.1926437587     0.7529553281
   42      H       3.8405684822    -1.1431678239     1.1957641048
   43      H       3.2151135028    -0.4161377351    -1.0483700447
   44      H       4.8688857071    -0.6420625814    -1.6332857540
   45      H       5.6665732274     1.1215544228    -0.1118739776
   46      H       4.0535154763     1.3070627686     0.5644735338
   47      H       4.8038731998     1.8066105140    -2.3502658213
   48      H       4.6952634233     3.0600208470    -1.1218432468
   49      H       2.4040054536     1.3321622826    -2.1573430519
   50      H       2.7071960686     3.0218558004    -2.5347286829
   51      H       1.9743168612     1.9145067089     0.2113836853
   52      H       0.8908974602     2.7176763364    -0.9122091367
   53      H       2.3010622762     4.7874425059    -0.7656139916
   54      H       3.3000801976     3.9936026820     0.4536465969
   55      H       0.3045900392     4.5178942492     0.7100116302
   56      H       1.5815244810     5.4214221007     1.5281461632
   57      H       1.3126471751     3.7227412588     1.9222520712
   58      H       1.9343094450    -2.5823877770     2.7358108502
   59      H       1.0585086574     0.0378875190     4.0608901029
   60      H       1.9342555059    -1.3680086933     4.8243988373
   61      H      -0.2070428899     0.4500977502     2.3720234926
   62      H      -1.1419565373     2.5910883996     1.8740033527
   63      H      -2.2404222699     1.1928901420     2.0229679747
   64      H      -2.8223189019     3.4631102424     0.0919526649
   65      H      -3.2671477225     3.5725334313     1.7991045512
   66      H      -5.2136879448     2.7764348821     0.6493418692
   67      H      -4.5467158449     1.4191121518     1.5514173694
   68      H      -3.3566618592     0.7282935739    -0.6226158673
   69      H      -4.2957717777     1.9656350749    -1.4348262773
   70      H      -5.3437325822    -0.1829722373    -1.7460644373
   71      H      -6.3974701531     0.8416606097    -0.7774545888
   72      H      -6.3110307757    -1.5151133974    -0.0098948105
   73      H      -5.8927634924    -0.3553563357     1.2408997448
   74      H      -4.4467345696    -2.2962656553     1.3616587748
   75      H      -3.4927689839    -0.8728055149     0.9723320075
   76      H      -3.3790758781    -1.5453790142    -1.3932096987
   77      H      -4.4463813614    -2.9163176979    -1.0769246207
   78      H      -2.7543073893    -3.8794018691     0.4633537346
   79      H      -1.7087738224    -2.4838452076     0.2012723956
   80      H      -2.5642836935    -4.4871210299    -1.9412399576
   81      H      -0.9652967349    -4.3687722147    -1.2004232269
   82      H      -1.5638589598    -3.0629152979    -2.2270294496
 ----------------------------------------------------------------

    8   -1323.7176825292      6.74e-06  Convergence criterion met
 Total energy in the final basis set =    -1323.7176825292

                    Orbital Energies (a.u.)
 --------------------------------------------------------------

 Alpha MOs
 -- Occupied --
-19.1787 -19.1688 -10.2457 -10.2411 -10.2410 -10.2358 -10.1967 -10.1940
-10.1872 -10.1866 -10.1858 -10.1848 -10.1845 -10.1788 -10.1770 -10.1742
-10.1717 -10.1703 -10.1676 -10.1667 -10.1659 -10.1654 -10.1653 -10.1646
-10.1645 -10.1637 -10.1618 -10.1612 -10.1612 -10.1609 -10.1594 -10.1583
 -1.0711  -1.0598  -0.8647  -0.8150  -0.8100  -0.8068  -0.7927  -0.7914
 -0.7699  -0.7661  -0.7625  -0.7441  -0.7289  -0.7245  -0.7119  -0.6940
 -0.6806  -0.6587  -0.6486  -0.6375  -0.6223  -0.6159  -0.5979  -0.5861
 -0.5793  -0.5754  -0.5683  -0.5642  -0.5538  -0.5374  -0.5357  -0.5263
 -0.5170  -0.4946  -0.4905  -0.4869  -0.4707  -0.4680  -0.4665  -0.4542
 -0.4516  -0.4458  -0.4453  -0.4433  -0.4375  -0.4301  -0.4238  -0.4205
 -0.4184  -0.4156  -0.4122  -0.4088  -0.4004  -0.3995  -0.3949  -0.3922
 -0.3899  -0.3838  -0.3802  -0.3720  -0.3705  -0.3688  -0.3648  -0.3620
 -0.3572  -0.3546  -0.3523  -0.3450  -0.3413  -0.3388  -0.3359  -0.3349
 -0.3283  -0.3267  -0.3225  -0.3200  -0.3182  -0.3142  -0.3122  -0.3090
 -0.3057  -0.3012  -0.3006  -0.2966  -0.2926  -0.2912  -0.2895  -0.2854
 -0.2564  -0.2255  -0.1950

          Ground-State Mulliken Net Atomic Charges

     Atom                 Charge (a.u.)
  ----------------------------------------
      1 C                    -0.353815
      2 C                    -0.123795
      3 C                     0.159903
      4 C                    -0.292130
      5 C                     0.328679
      6 O                    -0.536974
      7 C                    -0.052176
      8 C                    -0.268515
      9 C                    -0.266997
     10 C                    -0.271920
     11 C                    -0.258228
     12 C                    -0.259673
     13 C                    -0.261795
     14 C                    -0.266445
     15 C                    -0.251449
     16 C                    -0.446024
     17 C                     0.118884
     18 C                    -0.108429
     19 C                    -0.353762
     20 C                    -0.291206
     21 C                     0.352719
     22 O                    -0.540821
     23 C                    -0.042347
     24 C                    -0.284042
     25 C                    -0.262623
     26 C                    -0.274257
     27 C                    -0.259024
     28 C                    -0.259805
     29 C                    -0.264070
     30 C                    -0.252754
     31 C                    -0.255273
     32 C                    -0.444107
     33 H                     0.135053
     34 H                     0.175822
     35 H                     0.125533
     36 H                     0.140800
     37 H                     0.142900
     38 H                     0.144456
     39 H                     0.129738
     40 H                     0.140119
     41 H                     0.128980
     42 H                     0.154891
     43 H                     0.152441
     44 H                     0.120517
     45 H                     0.123393
     46 H                     0.136922
     47 H                     0.121723
     48 H                     0.128731
     49 H                     0.136146
     50 H                     0.121542
     51 H                     0.139032
     52 H                     0.139998
     53 H                     0.127336
     54 H                     0.134477
     55 H                     0.142709
     56 H                     0.138760
     57 H                     0.139306
     58 H                     0.152074
     59 H                     0.137471
     60 H                     0.144012
     61 H                     0.136962
     62 H                     0.144583
     63 H                     0.142709
     64 H                     0.151326
     65 H                     0.136401
     66 H                     0.130216
     67 H                     0.133913
     68 H                     0.177648
     69 H                     0.122378
     70 H                     0.132424
     71 H                     0.120582
     72 H                     0.125374
     73 H                     0.124951
     74 H                     0.124240
     75 H                     0.133608
     76 H                     0.141924
     77 H                     0.121334
     78 H                     0.124733
     79 H                     0.148412
     80 H                     0.135932
     81 H                     0.140903
     82 H                     0.136836
  ----------------------------------------
  Sum of atomic charges =     0.000000

                    Cartesian Multipole Moments
 -----------------------------------------------------------------
    Charge (ESU x 10^10)
                -0.0000
    Dipole Moment (Debye)
         X       0.4282      Y       0.5146      Z       0.1600
       Tot       0.6883
    Quadrupole Moments (Debye-Ang)
        XX    -200.6001     XY      -8.3593     YY    -200.2373
        XZ      -2.9432     YZ       5.4375     ZZ    -196.7608

 Total job time:  335.72s(wall), 334.85s(cpu)
        *  Thank you very much for using Q-Chem.  Have a nice day.  *
