 Q-Chem 5.2, Q-Chem, Inc., Pleasanton, CA (2019)
 Q-Chem 5.2.1 for Intel X86 EM64T Linux

User input:
--------------------------------------------------------------
$molecule
0 1
C         1.78617726170000   -3.73018450670000    2.66703757210000
C         2.70283154240000   -3.18728669290000    1.86902162880000
C         2.68555539330000   -1.83390396330000    1.38356200210000
C         1.78614748170000   -0.82363666210000    1.61192316710000
C         2.09888053280000    0.38374992940000    0.96232113410000
C         1.22948133660000    1.60028556070000    1.04190773780000
C         0.34446047830000    1.74678850570000   -0.20359504320000
C        -0.65691700100000    0.60283320700000   -0.33764797380000
C        -1.53127359130000    0.76331389000000   -1.57848630380000
C        -2.46856337340000   -0.42130863100000   -1.81628936010000
C        -3.49117119410000   -0.67202516570000   -0.70508449820000
C        -4.40587749560000    0.51034211800000   -0.38028854350000
C        -5.27925576420000    0.93842389070000   -1.55750201050000
C        -6.23226693770000    2.08430438990000   -1.21268146810000
C        -7.35451004750000    1.67388075280000   -0.26621076830000
C         3.25775999680000    0.29935487730000    0.21767536170000
C         3.87781621690000    1.32950331840000   -0.56799909270000
C         4.96243157050000    1.16590357390000   -1.32147942150000
S         3.95867654530000   -1.28875112090000    0.33463383900000
H         1.86348642450000   -4.75231367930000    2.99274240040000
H         0.93339943480000   -3.17693658100000    3.02018629700000
H         3.54489058520000   -3.78036611820000    1.53601206500000
H         0.91811280300000   -0.94111731410000    2.23583616900000
H         1.84836316240000    2.49397781420000    1.14974141670000
H         0.59309895940000    1.52435857440000    1.92598424500000
H         0.97760446880000    1.77871207320000   -1.09322738510000
H        -0.19620032200000    2.69463762500000   -0.14293199630000
H        -1.28405777640000    0.57516152720000    0.55531726150000
H        -0.11759618880000   -0.34529726360000   -0.39831116910000
H        -0.88210604330000    0.86422788580000   -2.45254565520000
H        -2.11076462980000    1.68488142190000   -1.49896021950000
H        -1.86521183910000   -1.32593275440000   -1.92961244100000
H        -2.99495237150000   -0.26472657910000   -2.75990500690000
H        -2.96364899130000   -0.96401520600000    0.20538913190000
H        -4.11174389720000   -1.52113217010000   -1.00370039880000
H        -3.80880319380000    1.36092649830000   -0.04650258890000
H        -5.04651453980000    0.21506431600000    0.45309317430000
H        -5.85953820920000    0.08106030970000   -1.90721114930000
H        -4.63787808340000    1.26246548020000   -2.37917285000000
H        -6.67631156420000    2.45770855800000   -2.13884485270000
H        -5.66324721050000    2.90392926720000   -0.76721051900000
H        -7.91661079230000    0.84061803100000   -0.68270523240000
H        -8.03915639750000    2.50472961380000   -0.11024975560000
H        -6.96229911740000    1.37424270710000    0.70210704760000
H         3.39757987160000    2.29797388980000   -0.51815602300000
H         5.45755002110000    0.21162183010000   -1.39477145240000
H         5.38559374690000    1.97705776220000   -1.88698555660000
$end

$rem
BASIS = 6-31G*
GUI = 2
METHOD = B3LYP
PRINT_ORBITALS false
MOLDEN_FORMAT false
--------------------------------------------------------------

             Standard Nuclear Orientation (Angstroms)
    I     Atom           X                Y                Z
 ----------------------------------------------------------------
    1      C      -3.1236518643    -3.9235291240    -0.2683919324
    2      C      -3.7536790981    -2.8347935185     0.1669734525
    3      C      -3.3679016478    -1.4799911466    -0.1216450139
    4      C      -2.3286626232    -0.9977836700    -0.8760862855
    5      C      -2.2629557185     0.4056664167    -0.9358993329
    6      C      -1.1834492485     1.1398909050    -1.6691988037
    7      C      -0.0864804366     1.6344651210    -0.7162780407
    8      C       0.6587645623     0.4828585007    -0.0471197235
    9      C       1.7476181304     0.9895938253     0.8949792499
   10      C       2.4404848368    -0.1274622477     1.6763334612
   11      C       3.1801725843    -1.1565778282     0.8177620088
   12      C       4.2538358531    -0.5833111494    -0.1089444841
   13      C       5.3872524368     0.1140900623     0.6399704303
   14      C       6.4866256908     0.6369741058    -0.2863903779
   15      C       7.3168550366    -0.4703672976    -0.9252942788
   16      C      -3.2675958017     1.0138904978    -0.2110660875
   17      C      -3.5115568044     2.4202080432    -0.0507106519
   18      C      -4.4599301462     2.9471489826     0.7198795105
   19      S      -4.2972343382    -0.1700595986     0.5406989079
   20      H      -3.4697894864    -4.9093030353    -0.0129571471
   21      H      -2.2471973235    -3.8685962053    -0.8903542493
   22      H      -4.6316923719    -2.9355001565     0.7919957481
   23      H      -1.6256749771    -1.6355238593    -1.3817038894
   24      H      -1.6089455838     1.9939844394    -2.2009936548
   25      H      -0.7393932732     0.4712204477    -2.4094911907
   26      H      -0.5357479775     2.2685436257     0.0514714348
   27      H       0.6232830179     2.2440405428    -1.2811370524
   28      H       1.1025789613    -0.1477171229    -0.8196877449
   29      H      -0.0497688951    -0.1273110752     0.5178331767
   30      H       1.2948072311     1.6774868577     1.6142478751
   31      H       2.4859503161     1.5576685081     0.3261403308
   32      H       1.6885893379    -0.6584705982     2.2661667339
   33      H       3.1425162557     0.3238435380     2.3802431002
   34      H       2.4541884371    -1.7034576298     0.2124772908
   35      H       3.6495582697    -1.8804871560     1.4892506568
   36      H       3.8013152351     0.1182129517    -0.8121468725
   37      H       4.6644349452    -1.4099160079    -0.6922648796
   38      H       5.8249278010    -0.5807018504     1.3609426777
   39      H       4.9799928331     0.9589673515     1.1983907299
   40      H       7.1521675093     1.2814966005     0.2932903615
   41      H       6.0353332738     1.2504341830    -1.0699812431
   42      H       7.7536224126    -1.1074915545    -0.1590967912
   43      H       8.1240635039    -0.0433226527    -1.5164132631
   44      H       6.7094919243    -1.0884664593    -1.5812784560
   45      H      -2.8537193589     3.0684658137    -0.6146772156
   46      H      -5.1250551792     2.3261730334     1.2970841619
   47      H      -4.5985618784     4.0108581780     0.7982282430
 ----------------------------------------------------------------

    9   -1100.9350332311      2.67e-06  Convergence criterion met
 Total energy in the final basis set =    -1100.9350332311

                    Orbital Energies (a.u.)
 --------------------------------------------------------------

 Alpha MOs
 -- Occupied --
-88.8996 -10.2162 -10.2113 -10.1978 -10.1952 -10.1925 -10.1873 -10.1838
-10.1820 -10.1789 -10.1787 -10.1732 -10.1714 -10.1709 -10.1705 -10.1703
-10.1701 -10.1695 -10.1663  -7.9616  -5.9254  -5.9221  -5.9185  -0.8892
 -0.8177  -0.8082  -0.7983  -0.7793  -0.7677  -0.7458  -0.7188  -0.7017
 -0.6832  -0.6552  -0.6230  -0.6182  -0.5946  -0.5748  -0.5695  -0.5418
 -0.5339  -0.5232  -0.4909  -0.4768  -0.4612  -0.4580  -0.4542  -0.4479
 -0.4468  -0.4302  -0.4254  -0.4154  -0.4082  -0.3999  -0.3949  -0.3903
 -0.3771  -0.3754  -0.3697  -0.3625  -0.3603  -0.3566  -0.3487  -0.3403
 -0.3343  -0.3283  -0.3250  -0.3231  -0.3210  -0.3158  -0.3062  -0.3012
 -0.2954  -0.2680  -0.2443  -0.1946

          Ground-State Mulliken Net Atomic Charges

     Atom                 Charge (a.u.)
  ----------------------------------------
      1 C                    -0.341634
      2 C                    -0.088474
      3 C                    -0.127428
      4 C                    -0.162517
      5 C                     0.155617
      6 C                    -0.349172
      7 C                    -0.254295
      8 C                    -0.261658
      9 C                    -0.258686
     10 C                    -0.260648
     11 C                    -0.258534
     12 C                    -0.260609
     13 C                    -0.250724
     14 C                    -0.249646
     15 C                    -0.443917
     16 C                    -0.202629
     17 C                    -0.055955
     18 C                    -0.377789
     19 S                     0.232498
     20 H                     0.146707
     21 H                     0.142343
     22 H                     0.137298
     23 H                     0.132978
     24 H                     0.145657
     25 H                     0.142138
     26 H                     0.141327
     27 H                     0.129531
     28 H                     0.129118
     29 H                     0.147996
     30 H                     0.129287
     31 H                     0.130823
     32 H                     0.129122
     33 H                     0.131260
     34 H                     0.128992
     35 H                     0.126572
     36 H                     0.129606
     37 H                     0.131223
     38 H                     0.125854
     39 H                     0.133599
     40 H                     0.128915
     41 H                     0.128247
     42 H                     0.141327
     43 H                     0.141806
     44 H                     0.146570
     45 H                     0.138231
     46 H                     0.155287
     47 H                     0.144384
  ----------------------------------------
  Sum of atomic charges =     0.000000

                    Cartesian Multipole Moments
 -----------------------------------------------------------------
    Charge (ESU x 10^10)
                -0.0000
    Dipole Moment (Debye)
         X       0.9432      Y       0.0596      Z      -0.4647
       Tot       1.0531
    Quadrupole Moments (Debye-Ang)
        XX    -130.8010     XY       0.5979     YY    -119.7596
        XZ      -2.6426     YZ      -0.5203     ZZ    -127.1171

 Total job time:  89.75s(wall), 89.15s(cpu)
        *  Thank you very much for using Q-Chem.  Have a nice day.  *
