 Q-Chem 5.2, Q-Chem, Inc., Pleasanton, CA (2019)
 Q-Chem 5.2.1 for Intel X86 EM64T Linux

User input:
--------------------------------------------------------------
$molecule
0 1
O        -5.07731719930000    0.04950848710000    0.27059567350000
C        -3.85966073990000    0.03255998170000    0.16397920460000
C        -3.05433028140000    1.25554505630000    0.07930362060000
C        -3.69642402760000    2.49582604200000    0.12326380800000
C        -2.98372113770000    3.66812031090000    0.03816008270000
C        -1.59965451200000    3.61453009040000   -0.09890924860000
C        -0.94279528970000    2.40587730990000   -0.14513456950000
C        -1.65696050030000    1.20401979130000   -0.05145904960000
N        -1.00325978090000   -0.00733523400000   -0.09627599920000
C         0.41420158500000   -0.02808218150000   -0.23362512770000
C         1.22565903740000    0.10966589670000    0.88568735690000
C         2.60034667110000    0.08863865310000    0.75548879370000
C         3.19171957140000   -0.07199130850000   -0.49970917360000
C         4.63005369650000   -0.10502416440000   -0.71089517010000
C         5.59759394000000    0.00338346270000    0.18839277930000
F         5.47952186300000    0.16865289800000    1.49870824260000
F         6.88806710670000   -0.04237171300000   -0.12688342810000
C         2.36248482510000   -0.20925332610000   -1.61634060420000
C         0.98870531140000   -0.18751677720000   -1.48868829410000
C        -1.68719106670000   -1.19988042900000   -0.01393367390000
C        -3.08602069440000   -1.21245094850000    0.11034873290000
C        -3.75905701630000   -2.43431133700000    0.19146155360000
C        -3.07495989940000   -3.62599716590000    0.15434080720000
C        -1.68799025630000   -3.61100275130000    0.03864920800000
C        -1.00095037560000   -2.42117337150000   -0.04315428040000
H        -4.77128684970000    2.49163878430000    0.22527044800000
H        -3.48798945680000    4.62131256280000    0.07390886670000
H        -1.02975452730000    4.52908814710000   -0.17145688170000
H         0.13094708150000    2.38288763280000   -0.25583578620000
H         0.77152877030000    0.23409686700000    1.85723992580000
H         3.20923300940000    0.19664883710000    1.63741292390000
H         4.96454891950000   -0.23468840310000   -1.73005665440000
H         2.80372200030000   -0.33325086160000   -2.59396225600000
H         0.35334790350000   -0.29477918650000   -2.35502855300000
H        -4.83411969660000   -2.40016350300000    0.28539681570000
H        -3.60312724520000   -4.56473595030000    0.21716926700000
H        -1.13941349420000   -4.54102684480000    0.01407651750000
H         0.07543102080000   -2.42811792520000   -0.12719892830000
$end

$rem
BASIS = 6-31G*
GUI = 2
METHOD = B3LYP
PRINT_ORBITALS false
MOLDEN_FORMAT false
--------------------------------------------------------------

             Standard Nuclear Orientation (Angstroms)
    I     Atom           X                Y                Z
 ----------------------------------------------------------------
    1      O      -5.0243229793     0.0486304264     0.2564108059
    2      C      -3.8061132553     0.0322006945     0.1562274303
    3      C      -3.0009202853     1.2555212801     0.0751680651
    4      C      -3.6438178769     2.4955220921     0.1150989231
    5      C      -2.9312251741     3.6681080239     0.0331490679
    6      C      -1.5464298155     3.6150993036    -0.0965900098
    7      C      -0.8887698213     2.4067324790    -0.1387244526
    8      C      -1.6028561927     1.2045870303    -0.0481953379
    9      N      -0.9483608205    -0.0064828012    -0.0889366911
   10      C       0.4698149018    -0.0266326672    -0.2187964094
   11      C       1.2752920955     0.1120741406     0.9047093005
   12      C       2.6506570975     0.0916275091     0.7817745716
   13      C       3.2487180973    -0.0693702395    -0.4702033013
   14      C       4.6881615294    -0.1018342039    -0.6737823943
   15      C       5.6508936952     0.0074923805     0.2305403508
   16      F       5.5258339646     0.1733809754     1.5401290850
   17      F       6.9430332758    -0.0378171704    -0.0779008360
   18      C       2.4254494888    -0.2075979815    -1.5911220170
   19      C       1.0510056932    -0.1864429283    -1.4707290825
   20      C      -1.6321582706    -1.1993075210    -0.0095859547
   21      C      -3.0316179829    -1.2124730653     0.1073227445
   22      C      -3.7045004047    -2.4346084718     0.1855166320
   23      C      -3.0196588718    -3.6259908273     0.1526215285
   24      C      -1.6321054296    -3.6104025517     0.0442397035
   25      C      -0.9452009984    -2.4202919043    -0.0345544011
   26      H      -4.7192017489     2.4908809667     0.2114366718
   27      H      -3.4361214810     4.6210808772     0.0657441969
   28      H      -0.9765835225     4.5298882733    -0.1666038220
   29      H       0.1855522092     2.3841916705    -0.2437485022
   30      H       0.8159849858     0.2367914856     1.8737884112
   31      H       3.2548321674     0.2003787342     1.6668421398
   32      H       5.0280888602    -0.2318656991    -1.6910980877
   33      H       2.8718954987    -0.3318910917    -2.5663383575
   34      H       0.4202773699    -0.2944508245    -2.3403530133
   35      H      -4.7800595122    -2.4009187658     0.2737622240
   36      H      -3.5477105161    -4.5649458627     0.2131489461
   37      H      -1.0829711069    -4.5401806212     0.0230422374
   38      H       0.1316118916    -2.4267726215    -0.1129166393
 ----------------------------------------------------------------

    9   -1137.7195091299      7.92e-06  Convergence criterion met
 Total energy in the final basis set =    -1137.7195091299

                    Orbital Energies (a.u.)
 --------------------------------------------------------------

 Alpha MOs
 -- Occupied --
-24.7596 -24.7488 -19.1049 -14.3925 -10.3734 -10.2505 -10.2433 -10.2422
-10.2422 -10.2277 -10.2183 -10.2120 -10.2113 -10.2109 -10.2089 -10.1955
-10.1955 -10.1905 -10.1904 -10.1876 -10.1876 -10.1864 -10.1864 -10.1834
-10.1834  -1.3013  -1.2399  -1.0140  -1.0020  -0.8891  -0.8657  -0.8529
 -0.8231  -0.7844  -0.7750  -0.7688  -0.7542  -0.7505  -0.7256  -0.6667
 -0.6523  -0.6421  -0.6389  -0.6323  -0.5989  -0.5913  -0.5867  -0.5555
 -0.5545  -0.5460  -0.5398  -0.5343  -0.5024  -0.4829  -0.4796  -0.4718
 -0.4687  -0.4632  -0.4555  -0.4513  -0.4480  -0.4439  -0.4383  -0.4303
 -0.4281  -0.4238  -0.4233  -0.4026  -0.3957  -0.3919  -0.3809  -0.3769
 -0.3728  -0.3604  -0.3551  -0.3520  -0.3413  -0.3266  -0.3174  -0.2798
 -0.2594  -0.2525  -0.2516  -0.2407  -0.2318  -0.2031

          Ground-State Mulliken Net Atomic Charges

     Atom                 Charge (a.u.)
  ----------------------------------------
      1 O                    -0.518025
      2 C                     0.383604
      3 C                     0.032708
      4 C                    -0.179304
      5 C                    -0.133766
      6 C                    -0.128875
      7 C                    -0.183627
      8 C                     0.314875
      9 N                    -0.718845
     10 C                     0.170069
     11 C                    -0.120253
     12 C                    -0.208738
     13 C                     0.208863
     14 C                    -0.303366
     15 C                     0.552666
     16 F                    -0.230231
     17 F                    -0.241571
     18 C                    -0.208163
     19 C                    -0.121008
     20 C                     0.314521
     21 C                     0.032854
     22 C                    -0.179350
     23 C                    -0.133850
     24 C                    -0.128837
     25 C                    -0.183500
     26 H                     0.161979
     27 H                     0.130380
     28 H                     0.133223
     29 H                     0.147880
     30 H                     0.153795
     31 H                     0.150650
     32 H                     0.165392
     33 H                     0.141048
     34 H                     0.153461
     35 H                     0.161971
     36 H                     0.130384
     37 H                     0.133135
     38 H                     0.147853
  ----------------------------------------
  Sum of atomic charges =     0.000000

                    Cartesian Multipole Moments
 -----------------------------------------------------------------
    Charge (ESU x 10^10)
                 0.0000
    Dipole Moment (Debye)
         X       5.2533      Y      -0.1514      Z      -1.0836
       Tot       5.3660
    Quadrupole Moments (Debye-Ang)
        XX    -161.5365     XY      -0.0692     YY    -127.3474
        XZ      -2.5799     YZ       0.6737     ZZ    -136.1704

 Total job time:  128.25s(wall), 127.41s(cpu)
        *  Thank you very much for using Q-Chem.  Have a nice day.  *
