 Q-Chem 5.2, Q-Chem, Inc., Pleasanton, CA (2019)
 Q-Chem 5.2.1 for Intel X86 EM64T Linux

User input:
--------------------------------------------------------------
$molecule
0 1
C        -0.43008366440000   -0.99099144390000   -3.22382696190000
O         0.14732914980000   -1.22045897730000   -1.94768606670000
C        -0.38665372430000   -2.22344102480000   -1.23496384380000
C         0.31331154010000   -2.40957552930000    0.06545653060000
C         0.66811271260000   -1.34018546990000    0.89757759880000
N         0.26558571410000   -0.02601207370000    0.61062865480000
C         1.16802053890000    1.01752272380000    0.77966103650000
C         2.52683254550000    0.81249725050000    0.53936634580000
C         3.42448266270000    1.85068914690000    0.72775326100000
C         4.87413916620000    1.58346488840000    0.44128746930000
F         5.30920598840000    0.45220787770000    1.02644038210000
F         5.11024294700000    1.43077405020000   -0.87710572870000
F         5.68935527850000    2.56184614330000    0.85708530650000
C         2.99970681950000    3.10595052620000    1.13973594290000
C         1.64854371810000    3.30634145710000    1.37417893880000
C         0.74190923570000    2.27995528040000    1.20337975790000
C        -1.03741222750000    0.21043421740000    0.16156886580000
C        -2.09398248200000   -0.58110627130000    0.61383285270000
C        -3.37705631580000   -0.37343240780000    0.15590801520000
C        -3.65250177210000    0.63690721460000   -0.76863460660000
C        -4.97762934480000    0.90782363600000   -1.29568701740000
C        -6.12841898070000    0.33826358690000   -0.96610285200000
F        -6.34334731090000   -0.61385932310000   -0.06702933160000
F        -7.29042479050000    0.67621828070000   -1.52333830290000
C        -2.58877789950000    1.42700653360000   -1.21507141420000
C        -1.30469788830000    1.22208747310000   -0.76198770810000
C         1.38828342700000   -1.60284319540000    2.06210448040000
C         1.73898759690000   -2.89604077190000    2.39744147470000
C         1.35240691790000   -3.95700895620000    1.59288208110000
C         0.63721430370000   -3.71021636390000    0.43647675340000
O        -1.28112967910000   -2.92218037290000   -1.63561500940000
H        -1.46613054150000   -0.66337425650000   -3.11377205360000
H        -0.41020448020000   -1.90664770970000   -3.81812354900000
H         0.16927569100000   -0.21547327400000   -3.69322498300000
H         2.87740582690000   -0.15169036760000    0.20412457710000
H         3.71067516430000    3.90425487060000    1.27812372870000
H         1.30285094330000    4.27351409360000    1.70469819260000
H        -0.30553719880000    2.44389164590000    1.40690727210000
H        -1.90423881180000   -1.36558725370000    1.33094454930000
H        -4.16673894280000   -1.00635289720000    0.52415279310000
H        -5.04813843020000    1.67577292750000   -2.05272611880000
H        -2.77496901610000    2.20728914970000   -1.93867630340000
H        -0.49452209240000    1.82910382360000   -1.13696582570000
H         1.66175323130000   -0.78050315530000    2.70667664460000
H         2.29960882010000   -3.07753017240000    3.30172141700000
H         1.60852973460000   -4.96865609050000    1.86560303020000
H         0.33010522590000   -4.51891603720000   -0.20905396700000
$end

$rem
BASIS = 6-31G*
GUI = 2
METHOD = B3LYP
PRINT_ORBITALS false
MOLDEN_FORMAT false
--------------------------------------------------------------

             Standard Nuclear Orientation (Angstroms)
    I     Atom           X                Y                Z
 ----------------------------------------------------------------
    1      C      -1.1437681611    -0.6708797985    -3.1218666555
    2      O      -0.3726918984    -1.0647607952    -1.9971908583
    3      C      -0.8924771442    -2.0464883561    -1.2454475784
    4      C       0.0082078454    -2.4142119884    -0.1188436307
    5      C       0.6530314357    -1.4619491778     0.6807203257
    6      N       0.3833069742    -0.0906781166     0.5455027675
    7      C       1.4328291744     0.8196567110     0.5869646218
    8      C       2.6823254407     0.4698298088     0.0745904701
    9      C       3.7301164637     1.3739928137     0.1356724574
   10      C       5.0509974401     0.9550651638    -0.4429020863
   11      F       5.4329396120    -0.2617047360    -0.0127617793
   12      F       5.0123778049     0.8750748056    -1.7880155307
   13      F       6.0533376299     1.7928326544    -0.1459933346
   14      C       3.5622867203     2.6367457573     0.6862481181
   15      C       2.3185121745     2.9814994908     1.1911555477
   16      C       1.2668666925     2.0887806894     1.1496591568
   17      C      -0.9373036783     0.3356553706     0.3734782322
   18      C      -1.9862428454    -0.3535909040     0.9834667227
   19      C      -3.2929853230     0.0425167869     0.7973891909
   20      C      -3.5996190950     1.1459149695    -0.0025630528
   21      C      -4.9518140959     1.6149572772    -0.2448666398
   22      C      -6.0857870674     1.1661413089     0.2747588832
   23      F      -6.2532838219     0.1818726436     1.1489587744
   24      F      -7.2759678622     1.6839959233    -0.0257049232
   25      C      -2.5428166068     1.8324245219    -0.6083223857
   26      C      -1.2356367413     1.4392875218    -0.4270429341
   27      C       1.5375807248    -1.8975743264     1.6663983063
   28      C       1.7687880166    -3.2454522434     1.8602348241
   29      C       1.0993529273    -4.1876051812     1.0943246269
   30      C       0.2190510824    -3.7689015003     0.1148164694
   31      O      -1.9316609601    -2.5990106477    -1.4977596485
   32      H      -2.0872967618    -0.2290819906    -2.7941370223
   33      H      -1.3587313595    -1.5345248080    -3.7542574631
   34      H      -0.5450610576     0.0593611102    -3.6597259219
   35      H       2.8313445896    -0.5016416644    -0.3714845259
   36      H       4.3869275986     3.3299610694     0.7228123870
   37      H       2.1737532489     3.9556897570     1.6318000292
   38      H       0.3079155895     2.3628920667     1.5628399272
   39      H      -1.7717728745    -1.2073389466     1.6085900456
   40      H      -4.0768121045    -0.5158112552     1.2807902537
   41      H      -5.0599895728     2.4408789134    -0.9333267791
   42      H      -2.7556128519     2.6820773854    -1.2407145886
   43      H      -0.4366033421     1.9699979719    -0.9223754527
   44      H       2.0349363712    -1.1657348438     2.2857128330
   45      H       2.4600225115    -3.5616552991     2.6265032320
   46      H       1.2644416505    -5.2405998974     1.2597131962
   47      H      -0.3093901295    -4.4830811216    -0.4981422668
 ----------------------------------------------------------------

    9   -1590.4667107090      5.94e-06  Convergence criterion met
 Total energy in the final basis set =    -1590.4667107090

                    Orbital Energies (a.u.)
 --------------------------------------------------------------

 Alpha MOs
 -- Occupied --
-24.7442 -24.7335 -24.7230 -24.7174 -24.7139 -19.1920 -19.1351 -14.3805
-10.4271 -10.3557 -10.3155 -10.2447 -10.2446 -10.2366 -10.2357 -10.2158
-10.2088 -10.2065 -10.2040 -10.2037 -10.2036 -10.2026 -10.2023 -10.2017
-10.2016 -10.1995 -10.1973 -10.1964 -10.1938 -10.1929 -10.1921  -1.3025
 -1.2851  -1.2242  -1.2133  -1.2068  -1.1100  -1.0191  -0.9951  -0.8814
 -0.8765  -0.8610  -0.8102  -0.7936  -0.7837  -0.7689  -0.7624  -0.7573
 -0.7314  -0.7192  -0.6972  -0.6572  -0.6520  -0.6346  -0.6288  -0.6206
 -0.6162  -0.6011  -0.5775  -0.5763  -0.5730  -0.5707  -0.5691  -0.5502
 -0.5355  -0.5187  -0.5160  -0.5137  -0.5082  -0.4945  -0.4832  -0.4804
 -0.4722  -0.4699  -0.4604  -0.4558  -0.4542  -0.4519  -0.4483  -0.4454
 -0.4437  -0.4406  -0.4332  -0.4257  -0.4240  -0.4158  -0.4127  -0.4092
 -0.4056  -0.4029  -0.3944  -0.3916  -0.3856  -0.3838  -0.3771  -0.3762
 -0.3734  -0.3663  -0.3602  -0.3542  -0.3498  -0.3325  -0.3031  -0.2972
 -0.2833  -0.2747  -0.2712  -0.2611  -0.2586  -0.2389  -0.1909

          Ground-State Mulliken Net Atomic Charges

     Atom                 Charge (a.u.)
  ----------------------------------------
      1 C                    -0.223022
      2 O                    -0.437014
      3 C                     0.542937
      4 C                     0.074875
      5 C                     0.248277
      6 N                    -0.648449
      7 C                     0.297802
      8 C                    -0.210485
      9 C                    -0.009879
     10 C                     0.777018
     11 F                    -0.268649
     12 F                    -0.264917
     13 F                    -0.267503
     14 C                    -0.166266
     15 C                    -0.142952
     16 C                    -0.162287
     17 C                     0.283019
     18 C                    -0.179321
     19 C                    -0.190785
     20 C                     0.199990
     21 C                    -0.300754
     22 C                     0.542771
     23 F                    -0.234059
     24 F                    -0.249138
     25 C                    -0.214994
     26 C                    -0.169032
     27 C                    -0.164888
     28 C                    -0.127198
     29 C                    -0.132032
     30 C                    -0.171716
     31 O                    -0.481145
     32 H                     0.174951
     33 H                     0.169323
     34 H                     0.162239
     35 H                     0.170887
     36 H                     0.150101
     37 H                     0.140772
     38 H                     0.155909
     39 H                     0.153533
     40 H                     0.146146
     41 H                     0.157414
     42 H                     0.130597
     43 H                     0.149799
     44 H                     0.151810
     45 H                     0.140811
     46 H                     0.137413
     47 H                     0.158094
  ----------------------------------------
  Sum of atomic charges =     0.000000

                    Cartesian Multipole Moments
 -----------------------------------------------------------------
    Charge (ESU x 10^10)
                 0.0000
    Dipole Moment (Debye)
         X      -0.0231      Y       1.4496      Z       0.7886
       Tot       1.6504
    Quadrupole Moments (Debye-Ang)
        XX    -196.2673     XY      -7.0219     YY    -159.3744
        XZ       7.5126     YZ      -4.6653     ZZ    -164.4616

 Total job time:  209.71s(wall), 208.79s(cpu)
        *  Thank you very much for using Q-Chem.  Have a nice day.  *
