 Q-Chem 5.2, Q-Chem, Inc., Pleasanton, CA (2019)
 Q-Chem 5.2.1 for Intel X86 EM64T Linux

User input:
--------------------------------------------------------------
$molecule
0 1
C        -4.08448028390000    1.40955034550000   -0.08005690430000
C        -3.69152027480000    0.14097821520000   -0.06550270230000
C        -2.31651359710000   -0.33387484790000    0.00207086930000
C        -2.06330735050000   -1.70865225010000    0.03747505560000
C        -0.77788326510000   -2.20424357250000    0.10362028190000
C         0.32548587470000   -1.34751664540000    0.13833531070000
C         1.69481565120000   -1.84491478200000    0.22044700400000
C         2.10876756920000   -2.99891149000000   -0.28897426420000
C         0.06337752250000    0.02166503870000    0.10810840170000
S         1.39766598160000    1.22424128970000    0.08383478120000
N         2.21143991670000    0.91526401140000   -1.34296263510000
O         0.82708441450000    2.52893700530000   -0.05111744770000
O         2.32016835080000    0.97328555510000    1.14884291210000
C        -1.21440536190000    0.52327631920000    0.03505371550000
H        -5.12789104490000    1.66910302300000   -0.12991761420000
H        -3.39290608460000    2.23306236800000   -0.04054684290000
H        -4.43704684960000   -0.64394180190000   -0.10358174370000
H        -2.89582087620000   -2.39768468020000    0.01840235980000
H        -0.61683217910000   -3.27040494990000    0.15106208510000
H         2.38515056120000   -1.18987497920000    0.73427169770000
H         1.45166573980000   -3.65953922180000   -0.83112638460000
H         3.13142250380000   -3.32020451200000   -0.19231452510000
H         1.67315913550000    1.13978799160000   -2.16195798590000
H         2.64404678240000    0.00781274130000   -1.38843560400000
H        -1.32435165390000    1.59482608130000    0.00580275850000
$end

$rem
BASIS = 6-31G*
GUI = 2
METHOD = B3LYP
PRINT_ORBITALS false
MOLDEN_FORMAT false
--------------------------------------------------------------

             Standard Nuclear Orientation (Angstroms)
    I     Atom           X                Y                Z
 ----------------------------------------------------------------
    1      C       4.1255343865    -1.2281127926    -0.0873315193
    2      C       3.6660241153     0.0178880402    -0.0719406578
    3      C       2.2682666937     0.4193618237     0.0041380786
    4      C       1.9428217089     1.7788577653     0.0392964646
    5      C       0.6334110446     2.2057831269     0.1133199541
    6      C      -0.4227681294     1.2918784130     0.1566021177
    7      C      -1.8159553528     1.7161918464     0.2471490333
    8      C      -2.2938099436     2.8457448872    -0.2611220942
    9      C      -0.0886960728    -0.0615490461     0.1265536140
   10      S      -1.3575314812    -1.3331520382     0.1128760079
   11      N      -2.1959147409    -1.0702218689    -1.3088929885
   12      O      -0.7195324630    -2.6060292431    -0.0240444548
   13      O      -2.2849964083    -1.1295387247     1.1836617700
   14      C       1.2133576887    -0.4949027933     0.0456802833
   15      H       5.1808792678    -1.4321214438    -0.1437881465
   16      H       3.4788348385    -2.0870290583    -0.0420489345
   17      H       4.3686530591     0.8411267788    -0.1160979558
   18      H       2.7375187247     2.5109845847     0.0136995665
   19      H       0.4164190047     3.2619991545     0.1603350307
   20      H      -2.4672175844     1.0264108428     0.7664898847
   21      H      -1.6762160799     3.5392958724    -0.8085758242
   22      H      -3.3313911374     3.1125888079    -0.1580929008
   23      H      -1.6519028695    -1.2673592148    -2.1311451107
   24      H      -2.6762793358    -0.1870399729    -1.3527551978
   25      H       1.3797231341    -1.5591745398     0.0172042163
 ----------------------------------------------------------------

    9    -990.9595090518      7.12e-06  Convergence criterion met
 Total energy in the final basis set =     -990.9595090518

                    Orbital Energies (a.u.)
 --------------------------------------------------------------

 Alpha MOs
 -- Occupied --
-89.1136 -19.1413 -19.1408 -14.3644 -10.2280 -10.2229 -10.2158 -10.2096
-10.2095 -10.2088 -10.2044 -10.2031 -10.2006 -10.1927  -8.1395  -6.1044
 -6.1038  -6.1025  -1.1310  -1.0159  -0.9174  -0.8924  -0.8288  -0.7893
 -0.7801  -0.7349  -0.6747  -0.6592  -0.6100  -0.5930  -0.5834  -0.5423
 -0.5357  -0.5100  -0.5079  -0.4835  -0.4677  -0.4577  -0.4553  -0.4432
 -0.4266  -0.4132  -0.4025  -0.3784  -0.3717  -0.3645  -0.3460  -0.3385
 -0.3231  -0.3170  -0.3089  -0.2980  -0.2867  -0.2722  -0.2316

          Ground-State Mulliken Net Atomic Charges

     Atom                 Charge (a.u.)
  ----------------------------------------
      1 C                    -0.346578
      2 C                    -0.116943
      3 C                     0.193384
      4 C                    -0.194805
      5 C                    -0.167979
      6 C                     0.151946
      7 C                    -0.191882
      8 C                    -0.347623
      9 C                    -0.226596
     10 S                     1.190778
     11 N                    -0.816387
     12 O                    -0.503868
     13 O                    -0.516783
     14 C                    -0.239404
     15 H                     0.152048
     16 H                     0.157929
     17 H                     0.132231
     18 H                     0.139529
     19 H                     0.141846
     20 H                     0.211233
     21 H                     0.149906
     22 H                     0.157562
     23 H                     0.350813
     24 H                     0.353285
     25 H                     0.186359
  ----------------------------------------
  Sum of atomic charges =     0.000000

                    Cartesian Multipole Moments
 -----------------------------------------------------------------
    Charge (ESU x 10^10)
                 0.0000
    Dipole Moment (Debye)
         X       2.2707      Y       4.4444      Z      -3.0201
       Tot       5.8335
    Quadrupole Moments (Debye-Ang)
        XX     -82.7997     XY      -7.6334     YY     -90.2351
        XZ       5.7278     YZ       1.5254     ZZ     -88.9740

 Total job time:  42.39s(wall), 41.64s(cpu)
        *  Thank you very much for using Q-Chem.  Have a nice day.  *
