 Q-Chem 5.2, Q-Chem, Inc., Pleasanton, CA (2019)
 Q-Chem 5.2.1 for Intel X86 EM64T Linux

User input:
--------------------------------------------------------------
$molecule
0 1
C         4.53537642100000   -0.38675852080000    0.05571207990000
C         3.35466905570000   -0.99476028790000    0.07316010190000
C         2.08919847120000   -0.27935428610000    0.00188539890000
C         0.87574806790000   -0.97473655290000    0.02155848230000
C        -0.30862938140000   -0.26132520060000   -0.03714664300000
C        -1.62071396680000   -0.99849865720000    0.00863049560000
F        -1.47144688810000   -2.31356074830000    0.22025125480000
F        -2.43199818360000   -0.55295524680000    0.98418003430000
F        -2.31606403450000   -0.88516946130000   -1.14019034220000
C        -0.28345151200000    1.13837484290000   -0.11783634200000
C        -1.49252201220000    1.94858149530000   -0.18719240930000
C        -1.58692595130000    3.18440325430000    0.28769969840000
C         0.99328306530000    1.71820101000000   -0.14572747180000
N         2.11863346990000    1.05109048600000   -0.08494708210000
H         5.45941276670000   -0.93548367580000    0.11010927490000
H         4.59381032660000    0.68566041240000   -0.01460157380000
H         3.27960678230000   -2.07147651320000    0.14289775480000
H         0.86489716170000   -2.05156496710000    0.08860121170000
H        -2.35490430370000    1.48813325880000   -0.64886363830000
H        -0.76895952780000    3.67209416560000    0.79054340250000
H        -2.50300049640000    3.74307060420000    0.20987655450000
H         1.09394028080000    2.79087964720000   -0.24115429500000
$end

$rem
BASIS = 6-31G*
GUI = 2
METHOD = B3LYP
PRINT_ORBITALS false
MOLDEN_FORMAT false
--------------------------------------------------------------

             Standard Nuclear Orientation (Angstroms)
    I     Atom           X                Y                Z
 ----------------------------------------------------------------
    1      C       4.4765485061     0.1788261918    -0.0491070793
    2      C       3.3334384914     0.8547619624    -0.0703389666
    3      C       2.0282125245     0.2148340204     0.0016265498
    4      C       0.8575280709     0.9799069304    -0.0221801913
    5      C      -0.3666117272     0.3371838005     0.0373237983
    6      C      -1.6332860080     1.1496509643    -0.0128716698
    7      F      -1.4071158060     2.4529753641    -0.2288458781
    8      F      -2.4680541488     0.7488488136    -0.9880166337
    9      F      -2.3354644201     1.0812534459     1.1353494751
   10      C      -0.4234265125    -1.0612983172     0.1229089082
   11      C      -1.6778903932    -1.7991688237     0.1933648922
   12      C      -1.8438260036    -3.0290336515    -0.2773663648
   13      C       0.8171813178    -1.7146848558     0.1546220396
   14      N       1.9796900569    -1.1147388879     0.0931199483
   15      H       5.4311571604     0.6723842913    -0.1041001521
   16      H       4.4720841699    -0.8949182954     0.0250127254
   17      H       3.3215535280     1.9337707249    -0.1439212546
   18      H       0.9097478384     2.0552825913    -0.0929769929
   19      H      -2.5124293168    -1.2874462253     0.6522122374
   20      H      -1.0551701350    -3.5655011219    -0.7773542245
   21      H      -2.7910962643    -3.5328992804    -0.1989017047
   22      H       0.8548223974    -2.7910684113     0.2539155589
 ----------------------------------------------------------------

    9    -740.1187477081      4.31e-06  Convergence criterion met
 Total energy in the final basis set =     -740.1187477081

                    Orbital Energies (a.u.)
 --------------------------------------------------------------

 Alpha MOs
 -- Occupied --
-24.7323 -24.7283 -24.7270 -14.3377 -10.4391 -10.2386 -10.2331 -10.2321
-10.2215 -10.2130 -10.2041 -10.1950 -10.1946 -10.1873  -1.3138  -1.2229
 -1.2192  -0.9649  -0.8528  -0.8176  -0.7882  -0.7384  -0.7175  -0.6615
 -0.6504  -0.6039  -0.5886  -0.5881  -0.5864  -0.5464  -0.5080  -0.4881
 -0.4870  -0.4692  -0.4650  -0.4573  -0.4449  -0.4316  -0.4285  -0.4180
 -0.4142  -0.4026  -0.3986  -0.3858  -0.3744  -0.3626  -0.3348  -0.3014
 -0.2844  -0.2638  -0.2313

          Ground-State Mulliken Net Atomic Charges

     Atom                 Charge (a.u.)
  ----------------------------------------
      1 C                    -0.330207
      2 C                    -0.105398
      3 C                     0.322373
      4 C                    -0.230061
      5 C                    -0.032015
      6 C                     0.799444
      7 F                    -0.263743
      8 F                    -0.262854
      9 F                    -0.265980
     10 C                     0.091846
     11 C                    -0.123644
     12 C                    -0.337384
     13 C                    -0.011333
     14 N                    -0.474053
     15 H                     0.146920
     16 H                     0.174326
     17 H                     0.130953
     18 H                     0.159527
     19 H                     0.157123
     20 H                     0.152514
     21 H                     0.154109
     22 H                     0.147538
  ----------------------------------------
  Sum of atomic charges =     0.000000

                    Cartesian Multipole Moments
 -----------------------------------------------------------------
    Charge (ESU x 10^10)
                 0.0000
    Dipole Moment (Debye)
         X       0.5408      Y      -0.4377      Z      -0.0403
       Tot       0.6969
    Quadrupole Moments (Debye-Ang)
        XX     -76.5239     XY       7.1551     YY     -72.6795
        XZ      -0.9970     YZ       0.4538     ZZ     -80.8461

 Total job time:  32.98s(wall), 32.87s(cpu)
        *  Thank you very much for using Q-Chem.  Have a nice day.  *
