 Q-Chem 5.2, Q-Chem, Inc., Pleasanton, CA (2019)
 Q-Chem 5.2.1 for Intel X86 EM64T Linux

User input:
--------------------------------------------------------------
$molecule
0 1
C         4.01765716400000    0.69939741310000   -0.28911359140000
C         3.34445061720000   -0.43354926150000   -0.12811969360000
C         1.89919315210000   -0.57223338290000   -0.00331180540000
C         1.34565797950000   -1.83862028520000    0.21538613000000
C        -0.01427824560000   -2.01035524400000    0.34791515690000
C        -0.90913890450000   -0.94413534560000    0.22742411680000
C        -2.33885295020000   -1.23111318900000    0.40737988910000
C        -3.28991582580000   -1.03648443670000   -0.49132961280000
C        -0.35098026280000    0.32229245370000    0.01833572990000
N        -1.14742684380000    1.52348705870000   -0.03394496400000
O        -2.22918544130000    1.49059838310000   -0.57731596330000
O        -0.66223674990000    2.51534965830000    0.47258810880000
C         1.02270756650000    0.50361874970000   -0.07755328700000
H         5.09073873060000    0.70213056880000   -0.37077273770000
H         3.53969854430000    1.66216280590000   -0.34235422280000
H         3.88918284090000   -1.36806282770000   -0.07645637470000
H         1.99956597390000   -2.69519565820000    0.29252869880000
H        -0.41472447190000   -2.99596732560000    0.53477134840000
H        -2.57213377900000   -1.71433993220000    1.34948155480000
H        -3.09247736110000   -0.59845272510000   -1.45325865580000
H        -4.31039178500000   -1.31265640450000   -0.28850551500000
H         1.38962930340000    1.50854706060000   -0.21653616100000
$end

$rem
BASIS = 6-31G*
GUI = 2
METHOD = B3LYP
PRINT_ORBITALS false
MOLDEN_FORMAT false
--------------------------------------------------------------

             Standard Nuclear Orientation (Angstroms)
    I     Atom           X                Y                Z
 ----------------------------------------------------------------
    1      C       3.9700620300    -0.8401666530     0.2474643888
    2      C       3.3223455302     0.3152897735     0.1575864733
    3      C       1.8809262108     0.4934436558     0.0386286044
    4      C       1.3559761014     1.7830798057    -0.1000499601
    5      C       0.0006069550     1.9928225032    -0.2244117439
    6      C      -0.9177545922     0.9410562818    -0.1742276292
    7      C      -2.3401949807     1.2703397726    -0.3387218201
    8      C      -3.2985571860     1.0398026050     0.5435900359
    9      C      -0.3881479376    -0.3481098425    -0.0451311952
   10      N      -1.2108174279    -1.5323620174    -0.0714105086
   11      O      -2.2935776707    -1.5103672332     0.4705137085
   12      O      -0.7455524775    -2.5003572516    -0.6391167267
   13      C       0.9808938638    -0.5653889201     0.0420842271
   14      H       5.0425226549    -0.8717319249     0.3311995461
   15      H       3.4710048538    -1.7936077979     0.2380768133
   16      H       3.8875373288     1.2389723335     0.1668955395
   17      H       2.0287082689     2.6282217327    -0.1208961761
   18      H      -0.3775385307     2.9969217792    -0.3488875547
   19      H      -2.5594264254     1.8176666270    -1.2485869019
   20      H      -3.1142449506     0.5370931197     1.4760456031
   21      H      -4.3120121823     1.3507502366     0.3565063794
   22      H       1.3252761952    -1.5849699981     0.1174761724
 ----------------------------------------------------------------

   10    -591.5301936260      3.45e-06  Convergence criterion met
 Total energy in the final basis set =     -591.5301936260

                    Orbital Energies (a.u.)
 --------------------------------------------------------------

 Alpha MOs
 -- Occupied --
-19.1756 -19.1728 -14.5675 -10.2506 -10.2270 -10.2168 -10.2134 -10.2112
-10.2089 -10.2045 -10.1989 -10.1938 -10.1887  -1.2373  -1.0583  -0.8996
 -0.8315  -0.8081  -0.7804  -0.7377  -0.7043  -0.6528  -0.6134  -0.5832
 -0.5721  -0.5472  -0.5319  -0.5125  -0.5056  -0.4851  -0.4778  -0.4540
 -0.4466  -0.4351  -0.4084  -0.3943  -0.3799  -0.3710  -0.3587  -0.3231
 -0.3122  -0.3038  -0.2998  -0.2733  -0.2646  -0.2346

          Ground-State Mulliken Net Atomic Charges

     Atom                 Charge (a.u.)
  ----------------------------------------
      1 C                    -0.345328
      2 C                    -0.117413
      3 C                     0.171955
      4 C                    -0.175954
      5 C                    -0.189001
      6 C                     0.130558
      7 C                    -0.159855
      8 C                    -0.274069
      9 C                     0.228115
     10 N                     0.360599
     11 O                    -0.387598
     12 O                    -0.397644
     13 C                    -0.205560
     14 H                     0.152587
     15 H                     0.154249
     16 H                     0.133473
     17 H                     0.141298
     18 H                     0.144990
     19 H                     0.149267
     20 H                     0.166341
     21 H                     0.148120
     22 H                     0.170870
  ----------------------------------------
  Sum of atomic charges =     0.000000

                    Cartesian Multipole Moments
 -----------------------------------------------------------------
    Charge (ESU x 10^10)
                -0.0000
    Dipole Moment (Debye)
         X       2.0792      Y       3.5228      Z       0.2115
       Tot       4.0960
    Quadrupole Moments (Debye-Ang)
        XX     -67.8549     XY      -5.7389     YY     -75.4503
        XZ       1.3085     YZ      -3.1036     ZZ     -75.8958

 Total job time:  34.45s(wall), 34.22s(cpu)
        *  Thank you very much for using Q-Chem.  Have a nice day.  *
