 Q-Chem 5.2, Q-Chem, Inc., Pleasanton, CA (2019)
 Q-Chem 5.2.1 for Intel X86 EM64T Linux

User input:
--------------------------------------------------------------
$molecule
0 1
C        -4.51617409490000   -1.06997871640000    0.00710329370000
C        -3.72626961660000    0.00139321980000    0.00184264610000
C        -2.28876731780000   -0.02402746480000   -0.00086874450000
C        -1.43156725070000   -1.09578177520000   -0.00174564990000
C        -0.09048641780000   -0.69152680220000   -0.00257696170000
S         1.43045890140000   -1.50797975200000   -0.00222354910000
C         2.28877057120000    0.02401791520000   -0.00090693630000
C         3.72627417310000   -0.00137829710000    0.00177566340000
C         4.51614908280000    1.07001351030000    0.00732207640000
C         1.43156694280000    1.09577083170000   -0.00154568540000
C         0.09048869680000    0.69151463440000   -0.00243101930000
S        -1.43045177720000    1.50796994130000   -0.00186736540000
H        -5.58719994000000   -0.97273198780000    0.00936517240000
H        -4.12449050260000   -2.07215245080000    0.00953717730000
H        -4.16254506160000    0.99194874190000   -0.00000005410000
H        -1.75116420720000   -2.12081390130000   -0.00168609590000
H         4.16257409160000   -0.99192010920000   -0.00032685910000
H         4.12443444920000    2.07217640290000    0.01004407140000
H         5.58717896730000    0.97280042020000    0.00951436820000
H         1.75116709850000    2.12080170110000   -0.00128270800000
$end

$rem
BASIS = 6-31G*
GUI = 2
METHOD = B3LYP
PRINT_ORBITALS false
MOLDEN_FORMAT false
--------------------------------------------------------------

             Standard Nuclear Orientation (Angstroms)
    I     Atom           X                Y                Z
 ----------------------------------------------------------------
    1      C       4.5744989923    -0.7839896042    -0.0070216846
    2      C       3.7188133210     0.2356121330    -0.0016444817
    3      C       2.2857514882     0.1198843640     0.0010552403
    4      C       1.4976137299    -1.0036316960     0.0018054772
    5      C       0.1337745800    -0.6844724994     0.0026743914
    6      S      -1.3328433765    -1.5949129261     0.0022191775
    7      C      -2.2857545138    -0.1198954502     0.0010708899
    8      C      -3.7188191909    -0.2355982652    -0.0016233756
    9      C      -4.5744766121     0.7840263887    -0.0070532308
   10      C      -1.4976131121     1.0036192705     0.0018363074
   11      C      -0.1337764653     0.6844584947     0.0026840387
   12      S       1.3328365065     1.5949010734     0.0022221864
   13      H       5.6372942947    -0.6196134765    -0.0092659974
   14      H       4.2465835432    -1.8088013483    -0.0095715073
   15      H       4.0919627295     1.2516316154     0.0003131140
   16      H       1.8810091163    -2.0065479563     0.0016317428
   17      H      -4.0919938823    -1.2516060507     0.0003642529
   18      H      -4.2465295069     1.8088298486    -0.0096592876
   19      H      -5.6372780649     0.6196840844    -0.0092630846
   20      H      -1.8810116127     2.0065341122     0.0016875103
 ----------------------------------------------------------------

    8   -1182.2016320827      8.51e-06  Convergence criterion met
 Total energy in the final basis set =    -1182.2016320827

                    Orbital Energies (a.u.)
 --------------------------------------------------------------

 Alpha MOs
 -- Occupied --
-88.9103 -88.9103 -10.2250 -10.2250 -10.2207 -10.2201 -10.2017 -10.2017
-10.1998 -10.1998 -10.1853 -10.1853  -7.9717  -7.9717  -5.9358  -5.9358
 -5.9324  -5.9324  -5.9283  -5.9283  -0.9141  -0.8581  -0.7978  -0.7787
 -0.7612  -0.7135  -0.6942  -0.6353  -0.5946  -0.5557  -0.5535  -0.5132
 -0.4944  -0.4850  -0.4517  -0.4509  -0.4175  -0.4094  -0.4017  -0.3853
 -0.3666  -0.3623  -0.3621  -0.3616  -0.3372  -0.3079  -0.2932  -0.2568
 -0.2321  -0.1925

          Ground-State Mulliken Net Atomic Charges

     Atom                 Charge (a.u.)
  ----------------------------------------
      1 C                    -0.340896
      2 C                    -0.086741
      3 C                    -0.131600
      4 C                    -0.142718
      5 C                    -0.118477
      6 S                     0.239233
      7 C                    -0.131603
      8 C                    -0.086740
      9 C                    -0.340896
     10 C                    -0.142718
     11 C                    -0.118475
     12 S                     0.239232
     13 H                     0.148626
     14 H                     0.142923
     15 H                     0.139104
     16 H                     0.150547
     17 H                     0.139104
     18 H                     0.142922
     19 H                     0.148626
     20 H                     0.150547
  ----------------------------------------
  Sum of atomic charges =     0.000000

                    Cartesian Multipole Moments
 -----------------------------------------------------------------
    Charge (ESU x 10^10)
                 0.0000
    Dipole Moment (Debye)
         X      -0.0000      Y       0.0000      Z      -0.0034
       Tot       0.0034
    Quadrupole Moments (Debye-Ang)
        XX     -72.5612     XY      -2.5386     YY     -78.2098
        XZ      -0.0001     YZ      -0.0001     ZZ     -89.1339

 Total job time:  27.74s(wall), 27.49s(cpu)
        *  Thank you very much for using Q-Chem.  Have a nice day.  *
