 Q-Chem 5.2, Q-Chem, Inc., Pleasanton, CA (2019)
 Q-Chem 5.2.1 for Intel X86 EM64T Linux

User input:
--------------------------------------------------------------
$molecule
0 1
C        -3.58031730770000    1.33533495000000    0.10930512880000
C        -2.93568384900000    0.18003396100000   -0.00803266680000
C        -1.49308070930000   -0.01294800500000   -0.01379340450000
C        -0.57516994540000    1.03998363290000   -0.01283390790000
C         0.79235934790000    0.82169289940000   -0.01869409360000
O         1.71605182630000    1.82370589180000   -0.01617897720000
C         1.27473885870000    3.15865381380000   -0.01855491780000
C         1.30375134270000   -0.49689647100000   -0.02287095720000
C         2.74390166730000   -0.70393823490000   -0.03123836910000
C         3.37449384440000   -1.86267568730000    0.12634838530000
C         0.39239387670000   -1.54766500610000   -0.03046052890000
C        -0.96262284950000   -1.30303908830000   -0.02715658800000
F        -1.80073406630000   -2.36775627400000   -0.03662971790000
H        -4.65570431410000    1.37362657290000    0.10514708650000
H        -3.07779110520000    2.28124666510000    0.21866222020000
H        -3.50884208950000   -0.73309859400000   -0.10107930840000
H        -0.96035396270000    2.04546431250000   -0.01392735300000
H         2.17945715790000    3.76492294080000   -0.01893363650000
H         0.68686322470000    3.39078942180000    0.87532874070000
H         0.68721451540000    3.38811469690000   -0.91343532540000
H         3.32016544200000    0.19982092490000   -0.16965459390000
H         2.85966059220000   -2.79400339780000    0.28862362290000
H         4.44913314160000   -1.91752263290000    0.10507164820000
H         0.73317761880000   -2.56970948340000   -0.04841864110000
$end

$rem
BASIS = 6-31G*
GUI = 2
METHOD = B3LYP
PRINT_ORBITALS false
MOLDEN_FORMAT false
--------------------------------------------------------------

             Standard Nuclear Orientation (Angstroms)
    I     Atom           X                Y                Z
 ----------------------------------------------------------------
    1      C       3.6851511712    -1.0216798836     0.1075374115
    2      C       2.9608725220     0.0853306046    -0.0107378892
    3      C       1.5082710181     0.1764216263    -0.0162461260
    4      C       0.6666472456    -0.9384283069    -0.0139707767
    5      C      -0.7128452377    -0.8168139267    -0.0196263358
    6      O      -1.5638153902    -1.8812760669    -0.0158436250
    7      C      -1.0297542707    -3.1819013076    -0.0170431764
    8      C      -1.3156636462     0.4625604736    -0.0249420354
    9      C      -2.7668073559     0.5678463152    -0.0330715110
   10      C      -3.4772559672     1.6795471731     0.1235699130
   11      C      -0.4804264732     1.5747853514    -0.0338433227
   12      C       0.8884350286     1.4260188162    -0.0307142970
   13      F       1.6496261796     2.5470071055    -0.0414903990
   14      H       4.7605686235    -0.9842866729     0.1030874241
   15      H       3.2503870480    -2.0004666827     0.2179778457
   16      H       3.4684020313     1.0364007590    -0.1048573219
   17      H       1.1215586038    -1.9143457859    -0.0141943453
   18      H      -1.8896167615    -3.8502678622    -0.0165489471
   19      H      -0.4268033721    -3.3712425185     0.8768879262
   20      H      -0.4277651090    -3.3703908201    -0.9118777129
   21      H      -3.2781483953    -0.3743237841    -0.1704230801
   22      H      -3.0291257746     2.6449232557     0.2847722215
   23      H      -4.5530973386     1.6586954065     0.1025686391
   24      H      -0.8922162574     2.5703276765    -0.0527011830
 ----------------------------------------------------------------

    9    -600.8006981015      1.74e-06  Convergence criterion met
 Total energy in the final basis set =     -600.8006981015

                    Orbital Energies (a.u.)
 --------------------------------------------------------------

 Alpha MOs
 -- Occupied --
-24.7012 -19.1837 -10.2633 -10.2509 -10.2454 -10.2027 -10.2003 -10.1924
-10.1922 -10.1916 -10.1863 -10.1825 -10.1783  -1.2113  -1.0747  -0.8707
 -0.8132  -0.7691  -0.7591  -0.7275  -0.7000  -0.6506  -0.6025  -0.5811
 -0.5685  -0.5271  -0.5219  -0.5125  -0.4777  -0.4629  -0.4553  -0.4532
 -0.4498  -0.4325  -0.4277  -0.4160  -0.3893  -0.3854  -0.3639  -0.3586
 -0.3558  -0.3329  -0.3250  -0.3140  -0.2664  -0.2346  -0.2040

          Ground-State Mulliken Net Atomic Charges

     Atom                 Charge (a.u.)
  ----------------------------------------
      1 C                    -0.351553
      2 C                    -0.110132
      3 C                     0.108025
      4 C                    -0.275698
      5 C                     0.333946
      6 O                    -0.513013
      7 C                    -0.213963
      8 C                     0.116738
      9 C                    -0.102107
     10 C                    -0.348250
     11 C                    -0.278340
     12 C                     0.307670
     13 F                    -0.299222
     14 H                     0.147687
     15 H                     0.138844
     16 H                     0.145720
     17 H                     0.134253
     18 H                     0.171317
     19 H                     0.153145
     20 H                     0.153596
     21 H                     0.152440
     22 H                     0.141644
     23 H                     0.144888
     24 H                     0.142363
  ----------------------------------------
  Sum of atomic charges =     0.000000

                    Cartesian Multipole Moments
 -----------------------------------------------------------------
    Charge (ESU x 10^10)
                 0.0000
    Dipole Moment (Debye)
         X      -0.1779      Y      -2.2833      Z      -0.0135
       Tot       2.2902
    Quadrupole Moments (Debye-Ang)
        XX     -72.1110     XY      -2.7400     YY     -65.9902
        XZ       0.1017     YZ       0.1427     ZZ     -78.6895

 Total job time:  32.74s(wall), 32.53s(cpu)
        *  Thank you very much for using Q-Chem.  Have a nice day.  *
