 Q-Chem 5.2, Q-Chem, Inc., Pleasanton, CA (2019)
 Q-Chem 5.2.1 for Intel X86 EM64T Linux

User input:
--------------------------------------------------------------
$molecule
0 1
C        -5.91995947850000    2.39277566250000   -0.05047008130000
C        -6.00888704910000    1.06507871770000   -0.02971394940000
C        -4.89157229810000    0.16455485470000   -0.01147693630000
C        -4.93443121490000   -1.20916829990000    0.01016184310000
C        -3.67332957900000   -1.81222558520000    0.02423688170000
C        -2.63788255680000   -0.90390535310000    0.01356810740000
C        -1.23861523960000   -1.16916807110000    0.02247420090000
C        -0.60664903840000   -2.39366563690000    0.04884007590000
C         0.78609904430000   -2.30125344430000    0.04983177440000
C         1.25045549950000   -1.00388214990000    0.02411977720000
C         2.60229395510000   -0.55591632130000    0.01666270260000
C         3.75002136840000   -1.31901366120000    0.03450858880000
C         4.92245838360000   -0.55921465840000    0.01900748890000
C         4.70042338330000    0.79743599510000   -0.01090036220000
C         5.63466525040000    1.88901732160000   -0.03438936460000
C         6.96065356830000    1.76760735600000   -0.03253328670000
S         2.99454111580000    1.13587230850000   -0.01974714980000
S        -0.07452007840000    0.12235151180000   -0.00142045610000
S        -3.24547925820000    0.72514280030000   -0.01457732730000
H        -6.79449818440000    3.01840334120000   -0.06328461590000
H        -4.96417677460000    2.89051070910000   -0.05489477430000
H        -6.97746327550000    0.58067065570000   -0.02533891020000
H        -5.85760330840000   -1.76189877560000    0.01540699820000
H        -3.52178813650000   -2.87616180260000    0.04135411040000
H        -1.13847605500000   -3.32747886690000    0.06705470020000
H         1.43669486130000   -3.15656188680000    0.06867418350000
H         3.73843041210000   -2.39363453850000    0.05798854550000
H         5.90555241300000   -0.99377192920000    0.02940803320000
H         5.18544818580000    2.87354908550000   -0.05506601960000
H         7.44905980490000    0.80899433100000   -0.01240200440000
H         7.60014498400000    2.63209721130000   -0.05122008680000
$end

$rem
BASIS = 6-31G*
GUI = 2
METHOD = B3LYP
PRINT_ORBITALS false
MOLDEN_FORMAT false
--------------------------------------------------------------

             Standard Nuclear Orientation (Angstroms)
    I     Atom           X                Y                Z
 ----------------------------------------------------------------
    1      C       5.8192259650    -2.6486747687     0.0041888095
    2      C       5.9645213630    -1.3258078832    -0.0013390921
    3      C       4.8865023993    -0.3784208446    -0.0023301351
    4      C       4.9877276034     0.9923972907    -0.0079450142
    5      C       3.7534045760     1.6486745566    -0.0073565012
    6      C       2.6802748292     0.7851557785    -0.0012027150
    7      C       1.2935494045     1.1097807481     0.0007667121
    8      C       0.7142129855     2.3603160000     0.0020414381
    9      C      -0.6812051848     2.3272256068     0.0032139435
   10      C      -1.2002987094     1.0505102955     0.0027380305
   11      C      -2.5699599562     0.6603510394     0.0025780646
   12      C      -3.6842074917     1.4717479503     0.0038909302
   13      C      -4.8878863559     0.7623134261     0.0020989155
   14      C      -4.7237284609    -0.6028752187    -0.0005780510
   15      C      -5.7035326961    -1.6540101449    -0.0034796622
   16      C      -7.0231597898    -1.4763345227    -0.0056129297
   17      S      -3.0337768737    -1.0136249463    -0.0006695227
   18      S       0.0755982852    -0.1313100014     0.0011597246
   19      S       3.2180623914    -0.8684837744     0.0037541111
   20      H       6.6663755537    -3.3110412009     0.0048495995
   21      H       4.8431449486    -3.1053227927     0.0085204809
   22      H       6.9528176667    -0.8830169465    -0.0054403499
   23      H       5.9335657005     1.5053826128    -0.0125880863
   24      H       3.6472342675     2.7182203589    -0.0115666470
   25      H       1.2852596591     3.2708567799     0.0023267375
   26      H      -1.2948501855     3.2096207329     0.0042815302
   27      H      -3.6269408089     2.5451591792     0.0060238241
   28      H      -5.8516168113     1.2383862358     0.0026927627
   29      H      -5.2965784138    -2.6569628723    -0.0040524205
   30      H      -7.4703697088    -0.4976170484    -0.0051169302
   31      H      -7.6988256000    -2.3130613413    -0.0078759687
 ----------------------------------------------------------------

    9   -1811.4288873159      4.74e-06  Convergence criterion met
 Total energy in the final basis set =    -1811.4288873159

                    Orbital Energies (a.u.)
 --------------------------------------------------------------

 Alpha MOs
 -- Occupied --
-88.9107 -88.9091 -88.9061 -10.2294 -10.2291 -10.2285 -10.2284 -10.2210
-10.2193 -10.2005 -10.1986 -10.1962 -10.1956 -10.1950 -10.1936 -10.1929
-10.1927 -10.1838 -10.1818  -7.9726  -7.9710  -7.9681  -5.9367  -5.9350
 -5.9332  -5.9322  -5.9314  -5.9293  -5.9285  -5.9279  -5.9248  -0.9082
 -0.8942  -0.8777  -0.8070  -0.7945  -0.7653  -0.7564  -0.7413  -0.7322
 -0.7219  -0.6852  -0.6304  -0.6095  -0.5959  -0.5844  -0.5457  -0.5429
 -0.5323  -0.5252  -0.5104  -0.4936  -0.4699  -0.4565  -0.4432  -0.4264
 -0.4195  -0.4156  -0.4146  -0.4091  -0.3984  -0.3866  -0.3816  -0.3746
 -0.3711  -0.3654  -0.3625  -0.3602  -0.3450  -0.3314  -0.3230  -0.2997
 -0.2660  -0.2618  -0.2569  -0.2513  -0.2182  -0.1776

          Ground-State Mulliken Net Atomic Charges

     Atom                 Charge (a.u.)
  ----------------------------------------
      1 C                    -0.376062
      2 C                    -0.058744
      3 C                    -0.128839
      4 C                    -0.150888
      5 C                    -0.109718
      6 C                    -0.167033
      7 C                    -0.151083
      8 C                    -0.122568
      9 C                    -0.123092
     10 C                    -0.151673
     11 C                    -0.168217
     12 C                    -0.108002
     13 C                    -0.134671
     14 C                    -0.119101
     15 C                    -0.092787
     16 C                    -0.341757
     17 S                     0.255536
     18 S                     0.271049
     19 S                     0.261261
     20 H                     0.147436
     21 H                     0.156953
     22 H                     0.138975
     23 H                     0.140466
     24 H                     0.139007
     25 H                     0.141780
     26 H                     0.141347
     27 H                     0.140122
     28 H                     0.140748
     29 H                     0.139198
     30 H                     0.142188
     31 H                     0.148167
  ----------------------------------------
  Sum of atomic charges =     0.000000

                    Cartesian Multipole Moments
 -----------------------------------------------------------------
    Charge (ESU x 10^10)
                 0.0000
    Dipole Moment (Debye)
         X      -0.0618      Y       1.8251      Z      -0.0039
       Tot       1.8261
    Quadrupole Moments (Debye-Ang)
        XX    -108.0386     XY       0.9044     YY    -116.8424
        XZ      -0.0330     YZ      -0.0122     ZZ    -138.8961

 Total job time:  63.70s(wall), 63.52s(cpu)
        *  Thank you very much for using Q-Chem.  Have a nice day.  *
