 Q-Chem 5.2, Q-Chem, Inc., Pleasanton, CA (2019)
 Q-Chem 5.2.1 for Intel X86 EM64T Linux

User input:
--------------------------------------------------------------
$molecule
0 1
C        -2.90710547890000    2.33457871710000   -0.27000758930000
C        -2.60915336230000    1.18899285900000    0.32852665880000
C        -1.28859559740000    0.56273523170000    0.32258601400000
C        -0.14444994850000    1.35769101240000    0.32634348440000
C         1.13514354940000    0.83109846290000    0.33219319750000
C         2.31605702760000    1.76045199660000    0.28582517230000
C         2.95452507760000    1.77019205640000   -1.10405891520000
C         1.28833039080000   -0.56241836420000    0.32271785450000
C         2.60887801270000   -1.18869571110000    0.32902796820000
C         2.90712932680000   -2.33405696450000   -0.26974422100000
C         0.14420182160000   -1.35737861640000    0.32657418460000
C        -1.13539992660000   -0.83078535290000    0.33235034730000
C        -2.31617564230000   -1.76032476890000    0.28621720930000
C        -2.95358372020000   -1.77180966990000   -1.10414569430000
H        -3.89715969170000    2.75587735630000   -0.22448245300000
H        -2.18233188510000    2.88659023490000   -0.84489494020000
H        -3.38625821080000    0.65676842780000    0.86206784700000
H        -0.26479487290000    2.43162553720000    0.34604109680000
H         3.06393907920000    1.46343097880000    1.02475787060000
H         1.98800321010000    2.77157168370000    0.53612756530000
H         3.30229502770000    0.77468838050000   -1.37054564690000
H         3.80023240340000    2.45401728440000   -1.12998277350000
H         2.22782625520000    2.08871066980000   -1.84836448520000
H         3.38569071370000   -0.65673353600000    0.86329145190000
H         2.18266086040000   -2.88595418470000   -0.84515240700000
H         3.89721753650000   -2.75527071720000   -0.22388742300000
H         0.26459427950000   -2.43130337350000    0.34640560000000
H        -3.06465060370000   -1.46260651080000    1.02424975650000
H        -1.98811744240000   -2.77109025990000    0.53792025400000
H        -3.30183309150000   -0.77677614860000   -1.37177436130000
H        -3.79881750760000   -2.45624845470000   -1.13005628220000
H        -2.22613092340000   -2.09052550250000   -1.84763942850000
$end

$rem
BASIS = 6-31G*
GUI = 2
METHOD = B3LYP
PRINT_ORBITALS false
MOLDEN_FORMAT false
--------------------------------------------------------------

             Standard Nuclear Orientation (Angstroms)
    I     Atom           X                Y                Z
 ----------------------------------------------------------------
    1      C      -2.8472490734    -2.4072448557     0.2442391353
    2      C      -2.5783145051    -1.2545043551    -0.3543000901
    3      C      -1.2739887212    -0.5951063630    -0.3483625009
    4      C      -0.1101376213    -1.3609226592    -0.3521169079
    5      C       1.1557531830    -0.8021922466    -0.3579692392
    6      C       2.3597535251    -1.7014349688    -0.3115975874
    7      C       2.9982642193    -1.6950466564     1.0782863571
    8      C       1.2737092477     0.5947479225    -0.3484998902
    9      C       2.5780243918     1.2541653195    -0.3548130596
   10      C       2.8472639497     2.4066939599     0.2439541532
   11      C       0.1098751078     1.3605690875    -0.3523592837
   12      C      -1.1560239282     0.8018377031    -0.3581328282
   13      C      -2.3598912279     1.7012701220    -0.3120033176
   14      C      -2.9973858359     1.6966647425     1.0783597212
   15      H      -3.8263512360    -2.8534051774     0.1987160840
   16      H      -2.1087698318    -2.9407796895     0.8191286336
   17      H      -3.3686087509    -0.7420713248    -0.8878433260
   18      H      -0.2033306948    -2.4375532817    -0.3718099002
   19      H       3.0998981995    -1.3856300997    -1.0505317701
   20      H       2.0573318460    -2.7205157632    -0.5618955685
   21      H       3.3207900048    -0.6910790556     1.3447687379
   22      H       3.8609664301    -2.3573023322     1.1042128906
   23      H       2.2798387699    -2.0318074353     1.8225934971
   24      H       3.3680197686     0.7419825205    -0.8890744966
   25      H       2.1090928323     2.9401271542     0.8193601922
   26      H       3.8264022250     2.8527698898     0.1980952706
   27      H       0.2031159391     2.4371909765    -0.3721953191
   28      H      -3.1006112876     1.3847469509    -1.0500343773
   29      H      -2.0574563165     2.7199947974    -0.5637107727
   30      H      -3.3204026630     0.6931573262     1.3459927372
   31      H      -3.8596301403     2.3595459565     1.1042676311
   32      H      -2.2782113622     2.0336480744     1.8218518843
 ----------------------------------------------------------------

    8    -544.3009652596      4.71e-06  Convergence criterion met
 Total energy in the final basis set =     -544.3009652596

                    Orbital Energies (a.u.)
 --------------------------------------------------------------

 Alpha MOs
 -- Occupied --
-10.1871 -10.1871 -10.1864 -10.1864 -10.1847 -10.1847 -10.1821 -10.1821
-10.1773 -10.1773 -10.1765 -10.1765 -10.1691 -10.1691  -0.8680  -0.8144
 -0.7891  -0.7715  -0.7540  -0.7146  -0.7041  -0.6396  -0.6324  -0.6049
 -0.5769  -0.5711  -0.5307  -0.4958  -0.4886  -0.4552  -0.4489  -0.4449
 -0.4296  -0.4272  -0.4163  -0.4139  -0.4042  -0.3821  -0.3749  -0.3748
 -0.3547  -0.3538  -0.3490  -0.3447  -0.3421  -0.3264  -0.3108  -0.2982
 -0.2635  -0.2349  -0.2092

          Ground-State Mulliken Net Atomic Charges

     Atom                 Charge (a.u.)
  ----------------------------------------
      1 C                    -0.340953
      2 C                    -0.134081
      3 C                     0.120684
      4 C                    -0.266217
      5 C                     0.131860
      6 C                    -0.345972
      7 C                    -0.441322
      8 C                     0.120657
      9 C                    -0.134121
     10 C                    -0.340932
     11 C                    -0.266136
     12 C                     0.131781
     13 C                    -0.345976
     14 C                    -0.441279
     15 H                     0.140981
     16 H                     0.143688
     17 H                     0.134035
     18 H                     0.121030
     19 H                     0.143555
     20 H                     0.142155
     21 H                     0.160259
     22 H                     0.141085
     23 H                     0.149208
     24 H                     0.134061
     25 H                     0.143689
     26 H                     0.140979
     27 H                     0.121027
     28 H                     0.143559
     29 H                     0.142165
     30 H                     0.160225
     31 H                     0.141092
     32 H                     0.149215
  ----------------------------------------
  Sum of atomic charges =     0.000000

                    Cartesian Multipole Moments
 -----------------------------------------------------------------
    Charge (ESU x 10^10)
                 0.0000
    Dipole Moment (Debye)
         X       0.0001      Y       0.0005      Z      -0.0108
       Tot       0.0108
    Quadrupole Moments (Debye-Ang)
        XX     -79.6608     XY      -0.3581     YY     -80.8573
        XZ      -0.0017     YZ      -0.0008     ZZ     -88.5491

 Total job time:  45.65s(wall), 44.29s(cpu)
        *  Thank you very much for using Q-Chem.  Have a nice day.  *
