 Q-Chem 5.2, Q-Chem, Inc., Pleasanton, CA (2019)
 Q-Chem 5.2.1 for Intel X86 EM64T Linux

User input:
--------------------------------------------------------------
$molecule
0 1
C        -2.75586092430000    2.21534282530000   -0.05952035420000
C        -2.59252450160000    0.89756350460000   -0.04375552550000
C        -1.28590799180000    0.25516533660000   -0.02041127470000
N        -0.21083722970000    1.04085752210000   -0.08326273060000
C         1.00429150280000    0.51834321050000   -0.08020211530000
C         2.10304519000000    1.47537324600000   -0.07669553010000
C         3.31818428990000    1.27971818030000    0.42245946270000
C         1.15071343920000   -0.89205680060000   -0.11585213070000
N         2.35353712560000   -1.52658666880000   -0.23483639700000
N         0.08284993650000   -1.67888154380000   -0.01266414900000
C        -1.12425424790000   -1.13862404010000    0.07410713910000
C        -2.26037711070000   -2.09547343650000    0.25126533430000
H        -3.73211131390000    2.66860233130000   -0.07847299460000
H        -1.90275804290000    2.87109863620000   -0.05262334440000
H        -3.44798294300000    0.23725690650000   -0.04743788380000
H         1.83168727170000    2.44021797120000   -0.48469742530000
H         3.60554262890000    0.36432920180000    0.91147582070000
H         4.05973539860000    2.06057964530000    0.40029802240000
H         3.10399233710000   -1.01687918930000   -0.67145530660000
H         2.28613100330000   -2.50916715460000   -0.45114313900000
H        -1.86156084080000   -3.10153766740000    0.34751335150000
H        -2.92887340850000   -2.05986158180000   -0.60797094010000
H        -2.83288631630000   -1.84831964930000    1.14357880020000
$end

$rem
BASIS = 6-31G*
GUI = 2
METHOD = B3LYP
PRINT_ORBITALS false
MOLDEN_FORMAT false
--------------------------------------------------------------

             Standard Nuclear Orientation (Angstroms)
    I     Atom           X                Y                Z
 ----------------------------------------------------------------
    1      C       2.7091464066    -2.2590728348    -0.0611487837
    2      C       2.5671912389    -0.9388002190    -0.0470560526
    3      C       1.2711728123    -0.2752884050    -0.0234896620
    4      N       0.1834619262    -1.0435464026    -0.0843529241
    5      C      -1.0230402999    -0.5014122582    -0.0809828075
    6      C      -2.1371488486    -1.4405115758    -0.0752327363
    7      C      -3.3485257040    -1.2245187416     0.4246801095
    8      C      -1.1466274917     0.9111248865    -0.1184463807
    9      N      -2.3391176809     1.5648944940    -0.2372852589
   10      N      -0.0660695778     1.6806868959    -0.0172421081
   11      C       1.1321996741     1.1210640500     0.0692507185
   12      C       2.2838262870     2.0596230455     0.2441338495
   13      H       3.6779097608    -2.7281131776    -0.0803040916
   14      H       1.8455394812    -2.9009125999    -0.0526298059
   15      H       3.4332299192    -0.2924440563    -0.0523686256
   16      H      -1.8818096542    -2.4101795036    -0.4821381502
   17      H      -3.6205940418    -0.3039306621     0.9126813418
   18      H      -4.1026472714    -1.9932942463     0.4042182212
   19      H      -3.0981094371     1.0668178196    -0.6725690190
   20      H      -2.2559917215     2.5459590472    -0.4549984195
   21      H       1.9014427523     3.0721459055     0.3393369215
   22      H       2.9509123522     2.0120180946    -0.6156175272
   23      H       2.8530307401     1.8044407824     1.1363016642
 ----------------------------------------------------------------

    9    -513.8017308118      2.93e-06  Convergence criterion met
 Total energy in the final basis set =     -513.8017308118

                    Orbital Energies (a.u.)
 --------------------------------------------------------------

 Alpha MOs
 -- Occupied --
-14.3508 -14.3281 -14.3255 -10.2614 -10.2267 -10.2224 -10.2111 -10.1930
-10.1842 -10.1799 -10.1797 -10.1694  -0.9882  -0.9276  -0.8886  -0.8080
 -0.7731  -0.7483  -0.6991  -0.6508  -0.6302  -0.5956  -0.5547  -0.5436
 -0.5123  -0.4899  -0.4770  -0.4604  -0.4448  -0.4221  -0.4136  -0.4068
 -0.3968  -0.3943  -0.3707  -0.3520  -0.3450  -0.3141  -0.2880  -0.2807
 -0.2577  -0.2405  -0.1971

          Ground-State Mulliken Net Atomic Charges

     Atom                 Charge (a.u.)
  ----------------------------------------
      1 C                    -0.334472
      2 C                    -0.111798
      3 C                     0.265637
      4 N                    -0.551556
      5 C                     0.275382
      6 C                    -0.099922
      7 C                    -0.372945
      8 C                     0.433809
      9 N                    -0.777814
     10 N                    -0.525626
     11 C                     0.266758
     12 C                    -0.526243
     13 H                     0.135842
     14 H                     0.163403
     15 H                     0.123107
     16 H                     0.149116
     17 H                     0.161434
     18 H                     0.147537
     19 H                     0.331299
     20 H                     0.337259
     21 H                     0.175778
     22 H                     0.166495
     23 H                     0.167520
  ----------------------------------------
  Sum of atomic charges =     0.000000

                    Cartesian Multipole Moments
 -----------------------------------------------------------------
    Charge (ESU x 10^10)
                 0.0000
    Dipole Moment (Debye)
         X      -1.1600      Y       1.1259      Z      -0.8957
       Tot       1.8481
    Quadrupole Moments (Debye-Ang)
        XX     -58.2573     XY      -0.1174     YY     -68.6845
        XZ       2.8752     YZ      -1.1971     ZZ     -72.1002

 Total job time:  28.84s(wall), 28.74s(cpu)
        *  Thank you very much for using Q-Chem.  Have a nice day.  *
