 Q-Chem 5.2, Q-Chem, Inc., Pleasanton, CA (2019)
 Q-Chem 5.2.1 for Intel X86 EM64T Linux

User input:
--------------------------------------------------------------
$molecule
0 1
C         3.92209863500000    0.30526423910000   -0.52048247380000
C         3.06837051540000   -0.48193408640000    0.12281900690000
C         1.60655953700000   -0.38093351060000    0.11680961080000
C         0.89664174950000   -1.57021362270000    0.05957497110000
C        -0.48792957210000   -1.52663738510000    0.00387071460000
N        -1.41266149980000   -2.54250167780000   -0.04719719800000
C        -2.56501654650000   -1.95674431810000   -0.04977513370000
N        -2.48638710610000   -0.59245807150000   -0.01276114780000
C        -1.15231644390000   -0.28104908230000    0.02230213700000
C        -0.47302325500000    0.93276084000000    0.13011768720000
C        -1.19681694420000    2.19810036550000    0.22506800220000
C        -2.28966211770000    2.50614386880000   -0.46221444910000
C         0.92948854970000    0.86706217240000    0.17941960050000
N         1.66327129910000    2.03487314240000    0.23697120580000
H         4.98398589440000    0.12680200660000   -0.48110295470000
H         3.59814580380000    1.12183547450000   -1.14319947240000
H         3.45253353640000   -1.33388056940000    0.67241611090000
H         1.41292924190000   -2.51667992320000    0.03728213940000
H        -3.50575800640000   -2.47195713170000   -0.08324093970000
H        -3.24942442820000    0.06046538310000    0.04076720960000
H        -0.80660400660000    2.92451149700000    0.93145058000000
H        -2.69531951730000    1.85086158290000   -1.21517918180000
H        -2.79616867110000    3.44689027320000   -0.32803455170000
H         1.16728046090000    2.85149061390000    0.55580944330000
H         2.59584624740000    1.93650501810000    0.60864158150000
$end

$rem
BASIS = 6-31G*
GUI = 2
METHOD = B3LYP
PRINT_ORBITALS false
MOLDEN_FORMAT false
--------------------------------------------------------------

             Standard Nuclear Orientation (Angstroms)
    I     Atom           X                Y                Z
 ----------------------------------------------------------------
    1      C       3.8898936180     0.3643857263     0.5417200942
    2      C       2.9247547892     1.0046704258    -0.1070574066
    3      C       1.4980811346     0.6704189734    -0.1096680875
    4      C       0.6062070582     1.7303542466    -0.0572839074
    5      C      -0.7537385325     1.4651556321    -0.0097730418
    6      N      -1.8297772755     2.3194563597     0.0352627380
    7      C      -2.8732075760     1.5563848563     0.0313165244
    8      N      -2.5764702948     0.2224081770    -0.0044995576
    9      C      -1.2095332338     0.1291092710    -0.0314793564
   10      C      -0.3436498523    -0.9599304699    -0.1346121313
   11      C      -0.8544566289    -2.3249719366    -0.2331779092
   12      C      -1.8877791639    -2.8046691886     0.4477726223
   13      C       1.0304157179    -0.6700201144    -0.1756261607
   14      N       1.9424021387    -1.7049350034    -0.2281971896
   15      H       4.9096016463     0.7109389394     0.5085466987
   16      H       3.6974672017    -0.4938490914     1.1629411109
   17      H       3.1704994588     1.9074522767    -0.6548214986
   18      H       0.9637969666     2.7473892432    -0.0324348388
   19      H      -3.8846109266     1.9139597532     0.0589236493
   20      H      -3.2245235943    -0.5444668349    -0.0622049706
   21      H      -0.3485516449    -2.9790595055    -0.9368434649
   22      H      -2.3977919902    -2.2232867272     1.1979659569
   23      H      -2.2359679066    -3.8144416054     0.3110934483
   24      H       1.5857728164    -2.5904213326    -0.5495355087
   25      H       2.8493020108    -1.4580463806    -0.5943799584
 ----------------------------------------------------------------

    9    -590.0083204912      2.64e-06  Convergence criterion met
 Total energy in the final basis set =     -590.0083204912

                    Orbital Energies (a.u.)
 --------------------------------------------------------------

 Alpha MOs
 -- Occupied --
-14.3837 -14.3374 -14.3041 -10.2395 -10.2277 -10.2168 -10.2020 -10.1911
-10.1889 -10.1883 -10.1867 -10.1837 -10.1802 -10.1736  -1.0159  -0.9257
 -0.8767  -0.8348  -0.8038  -0.7688  -0.7216  -0.7152  -0.6412  -0.6159
 -0.6139  -0.5912  -0.5559  -0.5404  -0.5199  -0.5031  -0.4738  -0.4626
 -0.4459  -0.4404  -0.4399  -0.4328  -0.4110  -0.3921  -0.3874  -0.3663
 -0.3610  -0.3391  -0.3153  -0.2932  -0.2826  -0.2668  -0.2589  -0.2080
 -0.1847

          Ground-State Mulliken Net Atomic Charges

     Atom                 Charge (a.u.)
  ----------------------------------------
      1 C                    -0.364486
      2 C                    -0.150064
      3 C                     0.138371
      4 C                    -0.264566
      5 C                     0.248460
      6 N                    -0.497020
      7 C                     0.218356
      8 N                    -0.688989
      9 C                     0.243887
     10 C                     0.140647
     11 C                    -0.132228
     12 C                    -0.363620
     13 C                     0.156939
     14 N                    -0.809376
     15 H                     0.139478
     16 H                     0.166088
     17 H                     0.136274
     18 H                     0.137834
     19 H                     0.153283
     20 H                     0.328867
     21 H                     0.127331
     22 H                     0.143866
     23 H                     0.144030
     24 H                     0.319987
     25 H                     0.326651
  ----------------------------------------
  Sum of atomic charges =     0.000000

                    Cartesian Multipole Moments
 -----------------------------------------------------------------
    Charge (ESU x 10^10)
                 0.0000
    Dipole Moment (Debye)
         X      -0.7076      Y      -3.4590      Z      -1.2065
       Tot       3.7311
    Quadrupole Moments (Debye-Ang)
        XX     -64.7293     XY       4.2898     YY     -81.8128
        XZ      -3.1074     YZ       2.0491     ZZ     -83.5716

 Total job time:  40.50s(wall), 40.38s(cpu)
        *  Thank you very much for using Q-Chem.  Have a nice day.  *
