 Q-Chem 5.2, Q-Chem, Inc., Pleasanton, CA (2019)
 Q-Chem 5.2.1 for Intel X86 EM64T Linux

User input:
--------------------------------------------------------------
$molecule
0 1
C        -5.08801632770000    1.89249037300000   -0.79783800310000
C        -4.11631549010000    1.05252068320000   -1.13637425420000
C        -2.89151779190000    0.76365335760000   -0.40346221910000
C        -2.02421793860000   -0.20628551630000   -0.90128351400000
C        -0.82204952470000   -0.57859486810000   -0.30568474060000
C        -0.01478148900000   -1.58470153200000   -1.01385274590000
C        -0.50888031250000   -2.72292213540000   -1.47770612990000
C        -0.46252358990000    0.05029185990000    0.89608261510000
O         0.60720403640000   -0.19209443090000    1.69852127130000
C         1.54613716920000   -1.20908314110000    1.43640199010000
C         2.65039660570000   -0.80661027490000    0.48673213410000
C         3.49974517050000   -1.78122876180000   -0.02519980700000
C         4.52296170470000   -1.43202166280000   -0.88664483810000
C         4.70643116480000   -0.10663158250000   -1.24701247540000
C         3.86568672660000    0.86685395950000   -0.73749181040000
C         2.84351685260000    0.51975108410000    0.12950617680000
C        -1.30830201020000    1.03507996940000    1.41208532180000
C        -2.47834726820000    1.38193799650000    0.77969169310000
F        -3.21748187350000    2.35290967710000    1.35717873440000
H        -5.95151350440000    2.01522801020000   -1.42984798020000
H        -5.07287398260000    2.48241429130000    0.10007735500000
H        -4.20954040150000    0.48967106880000   -2.05786259800000
H        -2.28758626000000   -0.69536832390000   -1.82807803350000
H         1.02054631270000   -1.33038373320000   -1.19917299770000
H        -1.53276891690000   -3.01075545550000   -1.30382638070000
H         0.09852893530000   -3.41794304240000   -2.03175265790000
H         1.04896136530000   -2.12000542620000    1.08023931600000
H         1.98910640000000   -1.42429963680000    2.41771116100000
H         3.35055848840000   -2.81531419380000    0.25162763200000
H         5.17719508040000   -2.19562188580000   -1.28067943060000
H         5.50338786710000    0.16454292960000   -1.92318240790000
H         4.00452822670000    1.90165470100000   -1.01332923260000
H         2.18883813010000    1.27961280250000    0.52978852370000
H        -1.03140148170000    1.52248438530000    2.33316732220000
$end

$rem
BASIS = 6-31G*
GUI = 2
METHOD = B3LYP
PRINT_ORBITALS false
MOLDEN_FORMAT false
--------------------------------------------------------------

             Standard Nuclear Orientation (Angstroms)
    I     Atom           X                Y                Z
 ----------------------------------------------------------------
    1      C       5.4179246632     0.2939575088    -1.0161619803
    2      C       4.2360329457     0.8916031781    -0.9146237468
    3      C       3.0091501701     0.3509671629    -0.3461124113
    4      C       1.8843748137     1.1699021925    -0.2751031781
    5      C       0.6502379813     0.7822772333     0.2398863536
    6      C      -0.4354411050     1.7736369776     0.1771089427
    7      C      -0.3015876666     3.0296572728     0.5762781124
    8      C       0.5303103109    -0.5209569815     0.7460485085
    9      O      -0.5320934426    -1.1014771143     1.3635197591
   10      C      -1.7296052595    -0.4116772994     1.6368504118
   11      C      -2.7114071182    -0.3904820479     0.4884332323
   12      C      -3.8208506678     0.4451021258     0.5538747396
   13      C      -4.7365765618     0.4708668326    -0.4813969553
   14      C      -4.5520438693    -0.3357135866    -1.5929546257
   15      C      -3.4512613932    -1.1710600803    -1.6608574589
   16      C      -2.5357270808    -1.2020999600    -0.6226712444
   17      C       1.6393644321    -1.3675109094     0.6771068404
   18      C       2.8340831787    -0.9459265937     0.1440478573
   19      F       3.8394234680    -1.8465357535     0.1159178711
   20      H       6.2555224861     0.8070161825    -1.4581226089
   21      H       5.6051879612    -0.7070505047    -0.6735150419
   22      H       4.1303365576     1.9062369157    -1.2806537898
   23      H       1.9623883519     2.1745899937    -0.6650124711
   24      H      -1.3631526685     1.4464661013    -0.2737072816
   25      H       0.6052433324     3.3860752302     1.0367711531
   26      H      -1.1017923824     3.7426536267     0.4749064058
   27      H      -1.5243729697     0.6090430858     1.9830073740
   28      H      -2.1766170207    -0.9703396045     2.4696676081
   29      H      -3.9592041996     1.0785807989     1.4186208577
   30      H      -5.5947809677     1.1238907224    -0.4229600872
   31      H      -5.2657126268    -0.3117983960    -2.4028844666
   32      H      -3.3027516142    -1.8031558393    -2.5237454106
   33      H      -1.6779078394    -1.8561202737    -0.6738922985
   34      H       1.5476832871    -2.3707074971     1.0615807575
 ----------------------------------------------------------------

    9    -831.8410888648      2.72e-06  Convergence criterion met
 Total energy in the final basis set =     -831.8410888648

                    Orbital Energies (a.u.)
 --------------------------------------------------------------

 Alpha MOs
 -- Occupied --
-24.7059 -19.1865 -10.2697 -10.2583 -10.2506 -10.2002 -10.1975 -10.1947
-10.1935 -10.1928 -10.1927 -10.1914 -10.1912 -10.1902 -10.1889 -10.1876
-10.1860 -10.1803 -10.1707  -1.2171  -1.0782  -0.8724  -0.8651  -0.8032
 -0.7975  -0.7718  -0.7527  -0.7354  -0.7269  -0.6918  -0.6323  -0.6251
 -0.6115  -0.5922  -0.5898  -0.5558  -0.5454  -0.5223  -0.5189  -0.4901
 -0.4797  -0.4708  -0.4600  -0.4579  -0.4521  -0.4451  -0.4384  -0.4351
 -0.4299  -0.4259  -0.4042  -0.3980  -0.3862  -0.3839  -0.3663  -0.3576
 -0.3532  -0.3487  -0.3382  -0.3355  -0.3307  -0.2893  -0.2673  -0.2575
 -0.2498  -0.2372  -0.2056

          Ground-State Mulliken Net Atomic Charges

     Atom                 Charge (a.u.)
  ----------------------------------------
      1 C                    -0.364066
      2 C                    -0.108720
      3 C                     0.131103
      4 C                    -0.288297
      5 C                     0.123007
      6 C                    -0.163902
      7 C                    -0.337496
      8 C                     0.324043
      9 O                    -0.529737
     10 C                    -0.105149
     11 C                     0.090330
     12 C                    -0.168589
     13 C                    -0.128648
     14 C                    -0.125702
     15 C                    -0.127409
     16 C                    -0.165690
     17 C                    -0.271765
     18 C                     0.324812
     19 F                    -0.292107
     20 H                     0.136412
     21 H                     0.157822
     22 H                     0.126743
     23 H                     0.140966
     24 H                     0.171913
     25 H                     0.145481
     26 H                     0.141874
     27 H                     0.169927
     28 H                     0.171245
     29 H                     0.125751
     30 H                     0.131735
     31 H                     0.130646
     32 H                     0.133618
     33 H                     0.147432
     34 H                     0.152417
  ----------------------------------------
  Sum of atomic charges =     0.000000

                    Cartesian Multipole Moments
 -----------------------------------------------------------------
    Charge (ESU x 10^10)
                 0.0000
    Dipole Moment (Debye)
         X      -2.5049      Y       1.3033      Z       0.1001
       Tot       2.8254
    Quadrupole Moments (Debye-Ang)
        XX    -105.6772     XY       0.3119     YY    -106.2091
        XZ      -0.6682     YZ       1.4687     ZZ    -107.0373

 Total job time:  76.55s(wall), 76.34s(cpu)
        *  Thank you very much for using Q-Chem.  Have a nice day.  *
