 Q-Chem 5.2, Q-Chem, Inc., Pleasanton, CA (2019)
 Q-Chem 5.2.1 for Intel X86 EM64T Linux

User input:
--------------------------------------------------------------
$molecule
0 1
C         3.67401202960000    0.63055497460000   -0.00647532680000
C         2.81022219130000   -0.37820171810000    0.00232080340000
C         1.36288838990000   -0.26335764020000    0.00198817190000
C         0.55491406170000   -1.40646057380000    0.00347643050000
N        -0.75965182320000   -1.35987942340000    0.00309555940000
C        -1.33375887780000   -0.15584283610000    0.00092155230000
C        -2.78821290950000   -0.12418104630000    0.00018662400000
C        -3.49088469730000    1.00226403150000   -0.00505671150000
N        -0.66250278250000    0.99772592640000   -0.00019707140000
C         0.65030961830000    0.94271741660000    0.00062913550000
H         4.73601604400000    0.45603895460000   -0.00554683880000
H         3.36366560450000    1.66131098860000   -0.01520318680000
H         3.17863976830000   -1.39735093810000    0.01002892360000
H         0.99311408840000   -2.39850830340000    0.00486453680000
H        -3.25666843130000   -1.09769822400000    0.00386933880000
H        -2.99269111370000    1.95677471290000   -0.00898210010000
H        -4.56732627890000    1.00202748750000   -0.00543783240000
H         1.15461717490000    1.90088748050000    0.00007190680000
$end

$rem
BASIS = 6-31G*
GUI = 2
METHOD = B3LYP
PRINT_ORBITALS false
MOLDEN_FORMAT false
--------------------------------------------------------------

             Standard Nuclear Orientation (Angstroms)
    I     Atom           X                Y                Z
 ----------------------------------------------------------------
    1      C       3.6218605792    -0.7902610977     0.0041230507
    2      C       2.8073987574     0.2587480313    -0.0015435100
    3      C       1.3562245321     0.2133855545    -0.0014060446
    4      C       0.6039511366     1.3938895243     0.0006342137
    5      N      -0.7113367951     1.4103494287     0.0010117616
    6      C      -1.3424770046     0.2352035516    -0.0003822804
    7      C      -2.7967775434     0.2732673983     0.0004088589
    8      C      -3.5526170693    -0.8182254154     0.0023313243
    9      N      -0.7272662686    -0.9492020992    -0.0028094548
   10      C       0.5866740157    -0.9571590003    -0.0036067612
   11      H       4.6910068771    -0.6668303063     0.0036096966
   12      H       3.2624806682    -1.8049842850     0.0097774491
   13      H       3.2242269272     1.2590922088    -0.0062191990
   14      H       1.0891827552     2.3638007291     0.0021895760
   15      H      -3.2180478796     1.2681194710    -0.0002917001
   16      H      -3.1007321255    -1.7955185644     0.0033287246
   17      H      -4.6278109017    -0.7664117246     0.0028253661
   18      H       1.0444907027    -1.9383901141    -0.0059891690
 ----------------------------------------------------------------

    9    -419.1265001813      3.34e-06  Convergence criterion met
 Total energy in the final basis set =     -419.1265001813

                    Orbital Energies (a.u.)
 --------------------------------------------------------------

 Alpha MOs
 -- Occupied --
-14.3351 -14.3330 -10.2563 -10.2390 -10.2364 -10.2117 -10.2057 -10.1942
-10.1871 -10.1849  -0.9947  -0.8939  -0.8359  -0.7877  -0.7417  -0.6678
 -0.6650  -0.5870  -0.5817  -0.5346  -0.5075  -0.4803  -0.4469  -0.4407
 -0.4365  -0.4173  -0.4090  -0.3821  -0.3616  -0.3426  -0.3199  -0.3028
 -0.2830  -0.2446  -0.2304

          Ground-State Mulliken Net Atomic Charges

     Atom                 Charge (a.u.)
  ----------------------------------------
      1 C                    -0.347411
      2 C                    -0.117440
      3 C                     0.126119
      4 C                     0.006462
      5 N                    -0.451974
      6 C                     0.439213
      7 C                    -0.087547
      8 C                    -0.326557
      9 N                    -0.453902
     10 C                     0.013895
     11 H                     0.152781
     12 H                     0.149871
     13 H                     0.136614
     14 H                     0.147638
     15 H                     0.145360
     16 H                     0.172707
     17 H                     0.147398
     18 H                     0.146773
  ----------------------------------------
  Sum of atomic charges =     0.000000

                    Cartesian Multipole Moments
 -----------------------------------------------------------------
    Charge (ESU x 10^10)
                 0.0000
    Dipole Moment (Debye)
         X       1.6784      Y      -0.3196      Z       0.0008
       Tot       1.7086
    Quadrupole Moments (Debye-Ang)
        XX     -48.9506     XY       0.9444     YY     -56.9560
        XZ      -0.0051     YZ      -0.0201     ZZ     -60.5725

 Total job time:  17.54s(wall), 16.73s(cpu)
        *  Thank you very much for using Q-Chem.  Have a nice day.  *
