 Q-Chem 5.2, Q-Chem, Inc., Pleasanton, CA (2019)
 Q-Chem 5.2.1 for Intel X86 EM64T Linux

User input:
--------------------------------------------------------------
$molecule
0 1
C         2.99699922480000   -2.50684827940000   -0.13490251600000
C         2.69496907460000   -1.22669942660000    0.04150609810000
C         1.35479341550000   -0.65015006990000    0.03107658510000
C         0.18864378560000   -1.40825466610000    0.05450702540000
C        -1.09235869120000   -0.85705854200000    0.04210632200000
C        -2.23653215700000   -1.76241628220000    0.06666621760000
C        -3.52108506420000   -1.45546041590000   -0.07312582190000
C        -1.18424989230000    0.53789694070000    0.01383943670000
F        -2.36930054670000    1.16745000280000    0.01435374830000
C        -0.04261310960000    1.32915447890000   -0.00162224310000
F        -0.15944643980000    2.66478728240000   -0.02339572510000
C         1.21263349260000    0.74018443220000    0.00751529780000
F         2.29789282020000    1.53099150570000   -0.01015013640000
H         4.01903272610000   -2.84205598090000   -0.11392759160000
H         2.25475205680000   -3.26538110800000   -0.31435716050000
H         3.49126078860000   -0.51087662360000    0.19449245630000
H         0.27469746030000   -2.48248021220000    0.08948206580000
H        -1.95933186130000   -2.80000947870000    0.20575033360000
H        -3.88048699810000   -0.45454324290000   -0.22626871700000
H        -4.27197929010000   -2.22654414330000   -0.04025185840000
$end

$rem
BASIS = 6-31G*
GUI = 2
METHOD = B3LYP
PRINT_ORBITALS false
MOLDEN_FORMAT false
--------------------------------------------------------------

             Standard Nuclear Orientation (Angstroms)
    I     Atom           X                Y                Z
 ----------------------------------------------------------------
    1      C       3.1687361949    -2.1702194453    -0.1144375899
    2      C       2.7706780759    -0.9157675335     0.0559250562
    3      C       1.3909963927    -0.4416664680     0.0387388564
    4      C       0.2850648599    -1.2852218119     0.0612410800
    5      C      -1.0336982439    -0.8319597596     0.0423816462
    6      C      -2.1066493877    -1.8206937342     0.0666657195
    7      C      -3.4101272575    -1.6117129849    -0.0786352749
    8      C      -1.2301004467     0.5520236539     0.0083244259
    9      F      -2.4591218610     1.0906826944     0.0023933773
   10      C      -0.1511336850     1.4268238489    -0.0064215882
   11      F      -0.3679709258     2.7498012348    -0.0338359046
   12      C       1.1447983650     0.9339464030     0.0092368909
   13      F       2.1675894815     1.8040500536    -0.0078999902
   14      H       4.2129954924    -2.4275476248    -0.0887207469
   15      H       2.4862746861    -2.9830707168    -0.2933956277
   16      H       3.5103380748    -0.1415382976     0.2087641255
   17      H       0.4515088260    -2.3497998242     0.1007261933
   18      H      -1.7527337337    -2.8339883674     0.2107550421
   19      H      -3.8432028856    -0.6412229660    -0.2369144814
   20      H      -4.1010399185    -2.4369510601    -0.0452471812
 ----------------------------------------------------------------

    9    -684.7311778825      3.30e-06  Convergence criterion met
 Total energy in the final basis set =     -684.7311778825

                    Orbital Energies (a.u.)
 --------------------------------------------------------------

 Alpha MOs
 -- Occupied --
-24.7277 -24.7268 -24.7238 -10.2916 -10.2906 -10.2901 -10.2193 -10.2173
-10.2092 -10.2030 -10.2028 -10.1917 -10.1870  -1.2480  -1.2395  -1.2279
 -0.8930  -0.8193  -0.8008  -0.7483  -0.7427  -0.6624  -0.6477  -0.6085
 -0.5755  -0.5696  -0.5503  -0.5344  -0.5107  -0.5023  -0.4802  -0.4722
 -0.4640  -0.4549  -0.4520  -0.4352  -0.4271  -0.4088  -0.3982  -0.3816
 -0.3781  -0.3652  -0.3500  -0.3253  -0.2871  -0.2429  -0.2292

          Ground-State Mulliken Net Atomic Charges

     Atom                 Charge (a.u.)
  ----------------------------------------
      1 C                    -0.346251
      2 C                    -0.112073
      3 C                     0.120018
      4 C                    -0.289916
      5 C                     0.134957
      6 C                    -0.110530
      7 C                    -0.355940
      8 C                     0.245918
      9 F                    -0.272936
     10 C                     0.264841
     11 F                    -0.273507
     12 C                     0.234525
     13 F                    -0.273012
     14 H                     0.152457
     15 H                     0.145381
     16 H                     0.149506
     17 H                     0.142578
     18 H                     0.134429
     19 H                     0.164494
     20 H                     0.145060
  ----------------------------------------
  Sum of atomic charges =     0.000000

                    Cartesian Multipole Moments
 -----------------------------------------------------------------
    Charge (ESU x 10^10)
                 0.0000
    Dipole Moment (Debye)
         X       0.3697      Y      -2.4320      Z       0.0348
       Tot       2.4602
    Quadrupole Moments (Debye-Ang)
        XX     -68.1878     XY      -0.1885     YY     -70.3468
        XZ       0.4594     YZ       0.0703     ZZ     -74.0930

 Total job time:  27.30s(wall), 27.20s(cpu)
        *  Thank you very much for using Q-Chem.  Have a nice day.  *
