 Q-Chem 5.2, Q-Chem, Inc., Pleasanton, CA (2019)
 Q-Chem 5.2.1 for Intel X86 EM64T Linux

User input:
--------------------------------------------------------------
$molecule
0 1
C        -4.73261355520000   -0.44193294440000   -0.00939224750000
C        -3.69957566250000    0.39215829380000    0.00672013510000
C        -2.29001709810000    0.02533361990000    0.00287345670000
C        -1.82049323130000   -1.29271488210000   -0.00824610780000
C        -0.46119453580000   -1.51750329690000   -0.01099351950000
C         0.42580387440000   -0.43535344780000   -0.00279563480000
C         1.85268216740000   -0.69552488820000   -0.00594901470000
C         2.84563781760000    0.18271084750000   -0.00012672210000
F         2.76449717430000    1.50579881940000    0.00995860210000
F         4.12803852410000   -0.17298041400000   -0.00377808330000
C        -0.14847478770000    0.84238535840000    0.00842633350000
N        -1.44319117310000    1.05743688090000    0.01129966350000
H        -5.74480206930000   -0.07584830780000   -0.00530773830000
H        -4.62056716950000   -1.51289852680000   -0.02778679400000
H        -3.86007018920000    1.46142008830000    0.02365062150000
H        -2.50837067670000   -2.12279317330000   -0.01407900110000
H        -0.07513746660000   -2.52749505630000   -0.01936323840000
H         2.15377882930000   -1.73373452780000   -0.01405837370000
H         0.46174322420000    1.73411225770000    0.01559439440000
$end

$rem
BASIS = 6-31G*
GUI = 2
METHOD = B3LYP
PRINT_ORBITALS false
MOLDEN_FORMAT false
--------------------------------------------------------------

             Standard Nuclear Orientation (Angstroms)
    I     Atom           X                Y                Z
 ----------------------------------------------------------------
    1      C       4.6283871610    -0.0877151102     0.0067103402
    2      C       3.5402560053     0.6732189881    -0.0025079168
    3      C       2.1593676509     0.2099936739    -0.0021259848
    4      C       1.7819074712    -1.1373562820    -0.0023883323
    5      C       0.4413588078    -1.4554118513    -0.0018792052
    6      C      -0.5181932439    -0.4370107436    -0.0010278431
    7      C      -1.9237190007    -0.7950299833    -0.0004310677
    8      C      -2.9749055649     0.0126193901     0.0010272388
    9      F      -2.9852503632     1.3381904833     0.0022766831
   10      F      -4.2297073360    -0.4307242650     0.0013386113
   11      C      -0.0334467249     0.8773557037    -0.0011883095
   12      N       1.2433453051     1.1812430289    -0.0019216237
   13      H       5.6129034375     0.3473566283     0.0059919648
   14      H       4.5905072827    -1.1639773218     0.0159188829
   15      H       3.6265866449     1.7511117987    -0.0102557720
   16      H       2.5254201899    -1.9180143278    -0.0034950343
   17      H       0.1259106843    -2.4896680188    -0.0022372928
   18      H      -2.1524623495    -1.8515715073    -0.0012711030
   19      H      -0.7037391027     1.7248828679    -0.0008714468
 ----------------------------------------------------------------

    9    -601.5540320604      3.36e-06  Convergence criterion met
 Total energy in the final basis set =     -601.5540320604

                    Orbital Energies (a.u.)
 --------------------------------------------------------------

 Alpha MOs
 -- Occupied --
-24.7512 -24.7412 -14.3255 -10.3651 -10.2270 -10.2203 -10.2154 -10.2116
-10.2096 -10.1998 -10.1890 -10.1857  -1.2929  -1.2317  -0.9518  -0.8397
 -0.8041  -0.7843  -0.7356  -0.6664  -0.6372  -0.6283  -0.5805  -0.5753
 -0.5464  -0.5261  -0.5054  -0.4940  -0.4562  -0.4534  -0.4475  -0.4417
 -0.4231  -0.4222  -0.4127  -0.4104  -0.3758  -0.3569  -0.3351  -0.2905
 -0.2734  -0.2531  -0.2194

          Ground-State Mulliken Net Atomic Charges

     Atom                 Charge (a.u.)
  ----------------------------------------
      1 C                    -0.348207
      2 C                    -0.086104
      3 C                     0.294300
      4 C                    -0.168974
      5 C                    -0.159192
      6 C                     0.168741
      7 C                    -0.305325
      8 C                     0.553292
      9 F                    -0.229567
     10 F                    -0.244991
     11 C                    -0.016845
     12 N                    -0.482715
     13 H                     0.150189
     14 H                     0.141792
     15 H                     0.146937
     16 H                     0.136127
     17 H                     0.139329
     18 H                     0.162842
     19 H                     0.148371
  ----------------------------------------
  Sum of atomic charges =     0.000000

                    Cartesian Multipole Moments
 -----------------------------------------------------------------
    Charge (ESU x 10^10)
                 0.0000
    Dipole Moment (Debye)
         X       0.3005      Y      -2.3742      Z      -0.0005
       Tot       2.3931
    Quadrupole Moments (Debye-Ang)
        XX     -64.2867     XY      -1.7836     YY     -63.8638
        XZ       0.0099     YZ      -0.0144     ZZ     -69.1559

 Total job time:  21.35s(wall), 21.27s(cpu)
        *  Thank you very much for using Q-Chem.  Have a nice day.  *
