 Q-Chem 5.2, Q-Chem, Inc., Pleasanton, CA (2019)
 Q-Chem 5.2.1 for Intel X86 EM64T Linux

User input:
--------------------------------------------------------------
$molecule
0 1
C         4.79817793720000   -1.76225693130000    3.56641290410000
C         4.21920156130000   -2.19258468800000    2.44776217980000
C         3.23905475390000   -1.46646940750000    1.68655755750000
C         2.68582651250000   -0.23051560100000    1.90627861820000
C         1.75189226790000    0.16379599200000    0.93217832900000
C         0.98867560850000    1.44946280930000    1.01092363460000
C        -0.41416741460000    1.20213810610000    1.57918870500000
C        -1.22435102240000    2.48231047330000    1.78261139920000
C        -1.47539054580000    3.30310993190000    0.51435645870000
C        -2.09337299640000    2.52485501010000   -0.64795013920000
C        -3.44945509530000    1.90660946720000   -0.31772169760000
C        -4.09843811760000    1.22685540300000   -1.52439013410000
C        -3.31634654960000    0.00760525120000   -2.01364515210000
C        -4.09789833030000   -0.84631247890000   -3.01230213290000
C        -4.35838349490000   -0.13217499620000   -4.33344323570000
C         1.57653483650000   -0.79042442280000   -0.04963086200000
C         0.70573352770000   -0.73157463860000   -1.19006833470000
C         0.47394034010000   -1.73574841460000   -2.03153518880000
S         2.58687362740000   -2.17632504900000    0.24144602370000
H         5.52624495790000   -2.36059727450000    4.08477949140000
H         4.56716211070000   -0.80476863320000    3.99987858740000
H         4.48130710190000   -3.16289814570000    2.04583544840000
H         2.94488235260000    0.38708317590000    2.74780612820000
H         0.91483282400000    1.90170265100000    0.02099433790000
H         1.52334834910000    2.14467330800000    1.66133569750000
H        -0.31169632700000    0.70227893110000    2.54621190650000
H        -0.95182806500000    0.51928106800000    0.91979796280000
H        -0.70224101690000    3.12056024910000    2.50051678170000
H        -2.18326963000000    2.21204763660000    2.22946083460000
H        -0.53255493200000    3.73946360590000    0.17630485740000
H        -2.13770936940000    4.13240309030000    0.77635757580000
H        -1.40622759890000    1.74067013390000   -0.96356369300000
H        -2.21547848400000    3.20986187450000   -1.49149990430000
H        -4.11613844330000    2.69240945090000    0.04705434180000
H        -3.33599182160000    1.17084076720000    0.48044163050000
H        -4.19475777140000    1.95317369120000   -2.33347821720000
H        -5.10498547460000    0.90678643120000   -1.24271211570000
H        -3.05742719700000   -0.61433716920000   -1.15253018680000
H        -2.38484145510000    0.32893148540000   -2.48290663350000
H        -5.05033840380000   -1.14300009470000   -2.56672233550000
H        -3.52910831340000   -1.75850422500000   -3.20958408920000
H        -4.99986395900000    0.73302585320000   -4.18834294670000
H        -4.84822571380000   -0.80302194570000   -5.03582336400000
H        -3.42244138350000    0.20278742560000   -4.77600343840000
H         0.21596068950000    0.22091590980000   -1.34337027340000
H         0.94246360190000   -2.69729515190000   -1.90175370490000
H        -0.19095103310000   -1.62849215670000   -2.87015928630000
$end

$rem
BASIS = 6-31G*
GUI = 2
METHOD = B3LYP
PRINT_ORBITALS false
MOLDEN_FORMAT false
--------------------------------------------------------------

             Standard Nuclear Orientation (Angstroms)
    I     Atom           X                Y                Z
 ----------------------------------------------------------------
    1      C       6.3114143061    -0.3451327625    -0.6529494986
    2      C       5.4159088296     0.6270099333    -0.4955214656
    3      C       4.0366246993     0.4366116427    -0.1367911763
    4      C       3.3386625782    -0.7174222071     0.1141578114
    5      C       1.9883731448    -0.5127374432     0.4479373382
    6      C       1.0342835691    -1.6380705232     0.7028455532
    7      C       0.1942005064    -1.9180910423    -0.5493174566
    8      C      -0.7389216544    -3.1198008409    -0.4016822523
    9      C      -1.7722253128    -3.0082194415     0.7230560854
   10      C      -2.6258968863    -1.7397897573     0.6935494602
   11      C      -3.4376938490    -1.5785622270    -0.5891151135
   12      C      -4.3652151688    -0.3629761394    -0.5524009234
   13      C      -3.6071751389     0.9637735946    -0.5002561027
   14      C      -4.5000396507     2.1765459398    -0.7634872617
   15      C      -5.5370533732     2.4034173056     0.3303091551
   16      C       1.6389931600     0.8226115311     0.4443513305
   17      C       0.3548511957     1.3981999406     0.7307657923
   18      C       0.0380496599     2.6815988827     0.5801554899
   19      S       3.0021366438     1.8218111806     0.0324403273
   20      H       7.3298800378    -0.1285566305    -0.9224286335
   21      H       6.0605281926    -1.3829881896    -0.5189460578
   22      H       5.7112434202     1.6583600677    -0.6399063602
   23      H       3.7840401086    -1.6951029467     0.0642984650
   24      H       0.3816119236    -1.3922086231     1.5415977770
   25      H       1.5992785042    -2.5347527902     0.9654670754
   26      H       0.8730792876    -2.1099767556    -1.3846598202
   27      H      -0.3809133748    -1.0258605752    -0.8009872355
   28      H      -0.1370340704    -4.0143197077    -0.2202515338
   29      H      -1.2579306654    -3.2676365987    -1.3509006413
   30      H      -1.2607695120    -3.0588870916     1.6871453768
   31      H      -2.4304880459    -3.8788703856     0.6622690817
   32      H      -1.9844565430    -0.8694213985     0.8267404459
   33      H      -3.3135909958    -1.7706808242     1.5431628513
   34      H      -4.0392258112    -2.4785282930    -0.7415298053
   35      H      -2.7647814189    -1.4807710783    -1.4428831999
   36      H      -5.0263291447    -0.4451169164     0.3122495617
   37      H      -4.9884695936    -0.3746621431    -1.4503661755
   38      H      -2.8137583131     0.9466419419    -1.2522978807
   39      H      -3.1356813861     1.0828414362     0.4768186734
   40      H      -5.0069925270     2.0508020659    -1.7231196133
   41      H      -3.8669669834     3.0641729083    -0.8401253593
   42      H      -6.2428302928     1.5781725361     0.3747366205
   43      H      -6.0956555648     3.3168740391     0.1382694162
   44      H      -5.0529691040     2.4958018289     1.3004506464
   45      H      -0.3884411721     0.7010974580     1.0943338698
   46      H       0.7549080005     3.3983361530     0.2150100211
   47      H      -0.9443149463     3.0524633063     0.8131666046
 ----------------------------------------------------------------

    9   -1100.9341563694      2.88e-06  Convergence criterion met
 Total energy in the final basis set =    -1100.9341563694

                    Orbital Energies (a.u.)
 --------------------------------------------------------------

 Alpha MOs
 -- Occupied --
-88.8990 -10.2156 -10.2105 -10.1972 -10.1948 -10.1924 -10.1871 -10.1834
-10.1814 -10.1784 -10.1782 -10.1750 -10.1746 -10.1739 -10.1732 -10.1728
-10.1719 -10.1712 -10.1665  -7.9609  -5.9249  -5.9213  -5.9179  -0.8885
 -0.8201  -0.8079  -0.7988  -0.7800  -0.7672  -0.7480  -0.7189  -0.7015
 -0.6817  -0.6583  -0.6240  -0.6222  -0.5945  -0.5782  -0.5631  -0.5438
 -0.5351  -0.5240  -0.4892  -0.4823  -0.4641  -0.4601  -0.4554  -0.4472
 -0.4386  -0.4312  -0.4251  -0.4197  -0.4093  -0.4056  -0.3908  -0.3859
 -0.3841  -0.3746  -0.3732  -0.3615  -0.3608  -0.3547  -0.3511  -0.3439
 -0.3382  -0.3315  -0.3251  -0.3235  -0.3161  -0.3132  -0.3080  -0.3041
 -0.2995  -0.2674  -0.2434  -0.1940

          Ground-State Mulliken Net Atomic Charges

     Atom                 Charge (a.u.)
  ----------------------------------------
      1 C                    -0.341822
      2 C                    -0.088295
      3 C                    -0.127578
      4 C                    -0.162239
      5 C                     0.154832
      6 C                    -0.348860
      7 C                    -0.261367
      8 C                    -0.258793
      9 C                    -0.262601
     10 C                    -0.273957
     11 C                    -0.257430
     12 C                    -0.256131
     13 C                    -0.254946
     14 C                    -0.253058
     15 C                    -0.444073
     16 C                    -0.205980
     17 C                    -0.058135
     18 C                    -0.385588
     19 S                     0.233015
     20 H                     0.146411
     21 H                     0.142035
     22 H                     0.137071
     23 H                     0.131143
     24 H                     0.150862
     25 H                     0.141631
     26 H                     0.138046
     27 H                     0.148619
     28 H                     0.126897
     29 H                     0.136173
     30 H                     0.130661
     31 H                     0.129247
     32 H                     0.146224
     33 H                     0.128436
     34 H                     0.125994
     35 H                     0.135006
     36 H                     0.131872
     37 H                     0.126228
     38 H                     0.132753
     39 H                     0.130603
     40 H                     0.130217
     41 H                     0.129864
     42 H                     0.148073
     43 H                     0.142303
     44 H                     0.139608
     45 H                     0.145627
     46 H                     0.155019
     47 H                     0.146386
  ----------------------------------------
  Sum of atomic charges =     0.000000

                    Cartesian Multipole Moments
 -----------------------------------------------------------------
    Charge (ESU x 10^10)
                -0.0000
    Dipole Moment (Debye)
         X      -0.4202      Y      -1.1283      Z      -0.0769
       Tot       1.2065
    Quadrupole Moments (Debye-Ang)
        XX    -121.4944     XY      -2.3260     YY    -122.8555
        XZ      -2.1786     YZ      -0.9586     ZZ    -129.6523

 Total job time:  98.82s(wall), 97.37s(cpu)
        *  Thank you very much for using Q-Chem.  Have a nice day.  *
