 Q-Chem 5.2, Q-Chem, Inc., Pleasanton, CA (2019)
 Q-Chem 5.2.1 for Intel X86 EM64T Linux

User input:
--------------------------------------------------------------
$molecule
0 1
C        -6.30590547230000    0.75671672700000    0.03720008930000
C        -5.33581897060000   -0.15470858690000    0.00781099760000
C        -3.92738956220000    0.13290060510000    0.00753081790000
C        -3.26944887930000    1.33971015180000    0.03469390000000
C        -1.87717323330000    1.21805188490000    0.02554148670000
C        -1.44222690780000   -0.08708480560000   -0.00888757350000
C        -0.10296726100000   -0.56860327290000   -0.02485856740000
C         0.33038807250000   -1.87418492280000   -0.06599148500000
C         1.72226612300000   -1.99270120290000   -0.06856133520000
C         2.37463825720000   -0.78230100980000   -0.02961531780000
C         3.79392946000000   -0.59237608600000   -0.02109119490000
C         4.43153131120000    0.57317270560000    0.02103000240000
F         3.87424225060000    1.77773822970000    0.06265863880000
F         5.75645525450000    0.69144053530000    0.02838224810000
S         1.24030641670000    0.53550150500000    0.01094094570000
S        -2.79113052160000   -1.18385485160000   -0.03122475120000
H        -7.34207412420000    0.46864745900000    0.03644718960000
H        -6.10076871710000    1.81265447620000    0.06326375520000
H        -5.58719593270000   -1.20717612930000   -0.01811741210000
H        -3.77822724200000    2.28591160530000    0.06044182690000
H        -1.19712690680000    2.05167236470000    0.04322615270000
H        -0.34774087220000   -2.70852581030000   -0.09274852990000
H         2.24245540380000   -2.93341444690000   -0.09771650970000
H         4.40593786480000   -1.48124716480000   -0.05037444950000
$end

$rem
BASIS = 6-31G*
GUI = 2
METHOD = B3LYP
PRINT_ORBITALS false
MOLDEN_FORMAT false
--------------------------------------------------------------

             Standard Nuclear Orientation (Angstroms)
    I     Atom           X                Y                Z
 ----------------------------------------------------------------
    1      C       6.1841342535    -0.9060829801     0.0097302899
    2      C       5.2338190801     0.0264022152     0.0100021103
    3      C       3.8195463226    -0.2307924281     0.0012839141
    4      C       3.1358750289    -1.4234718341    -0.0097819765
    5      C       1.7465296424    -1.2717649307    -0.0142972363
    6      C       1.3396747679     0.0428292468    -0.0067668496
    7      C       0.0110507561     0.5532111859    -0.0066252279
    8      C      -0.3942029406     1.8684301550    -0.0057819044
    9      C      -1.7832191891     2.0167784849    -0.0038185877
   10      C      -2.4614019850     0.8200151146    -0.0032252901
   11      C      -3.8844407072     0.6603838145    -0.0000161020
   12      C      -4.5468953394    -0.4919794970     0.0051762053
   13      F      -4.0155703834    -1.7089297894     0.0079903211
   14      F      -5.8740517702    -0.5819922858     0.0094536509
   15      S      -1.3555949325    -0.5224240798    -0.0054103875
   16      S       2.7117897895     1.1105842437     0.0052363548
   17      H       7.2262418743    -0.6404154225     0.0176297123
   18      H       5.9563981020    -1.9576739846     0.0021449243
   19      H       5.5077103734     1.0735300086     0.0175870350
   20      H       3.6242429761    -2.3807019572    -0.0145577744
   21      H       1.0487615680    -2.0907549117    -0.0228985880
   22      H       0.3016650080     2.6884710833    -0.0062242482
   23      H      -2.2831126016     2.9688779824    -0.0026175853
   24      H      -4.4772437710     1.5626519748    -0.0005507719
 ----------------------------------------------------------------

   10   -1458.0865291509      2.63e-06  Convergence criterion met
 Total energy in the final basis set =    -1458.0865291509

                    Orbital Energies (a.u.)
 --------------------------------------------------------------

 Alpha MOs
 -- Occupied --
-88.9104 -88.9091 -24.7490 -24.7400 -10.3607 -10.2311 -10.2276 -10.2271
-10.2213 -10.2145 -10.2009 -10.1961 -10.1942 -10.1942 -10.1924 -10.1843
 -7.9720  -7.9709  -5.9361  -5.9348  -5.9325  -5.9314  -5.9287  -5.9278
 -1.2896  -1.2302  -0.9047  -0.8846  -0.8186  -0.7956  -0.7536  -0.7498
 -0.7329  -0.6982  -0.6458  -0.6204  -0.6004  -0.5859  -0.5608  -0.5359
 -0.5308  -0.5262  -0.5234  -0.5046  -0.4770  -0.4505  -0.4457  -0.4416
 -0.4288  -0.4262  -0.4155  -0.4110  -0.4005  -0.3912  -0.3838  -0.3723
 -0.3647  -0.3520  -0.3387  -0.3245  -0.2906  -0.2629  -0.2553  -0.2376
 -0.1852

          Ground-State Mulliken Net Atomic Charges

     Atom                 Charge (a.u.)
  ----------------------------------------
      1 C                    -0.341566
      2 C                    -0.091699
      3 C                    -0.120805
      4 C                    -0.127550
      5 C                    -0.145305
      6 C                    -0.145899
      7 C                    -0.151992
      8 C                    -0.146750
      9 C                    -0.141199
     10 C                    -0.127592
     11 C                    -0.236827
     12 C                     0.535918
     13 F                    -0.228948
     14 F                    -0.245091
     15 S                     0.272320
     16 S                     0.251710
     17 H                     0.147933
     18 H                     0.143193
     19 H                     0.137873
     20 H                     0.141374
     21 H                     0.155278
     22 H                     0.153772
     23 H                     0.140011
     24 H                     0.171842
  ----------------------------------------
  Sum of atomic charges =     0.000000

                    Cartesian Multipole Moments
 -----------------------------------------------------------------
    Charge (ESU x 10^10)
                 0.0000
    Dipole Moment (Debye)
         X       0.4334      Y       0.8481      Z      -0.0046
       Tot       0.9524
    Quadrupole Moments (Debye-Ang)
        XX     -96.1834     XY      -6.8683     YY     -95.2148
        XZ       0.0386     YZ       0.0539     ZZ    -108.7291

 Total job time:  45.48s(wall), 45.31s(cpu)
        *  Thank you very much for using Q-Chem.  Have a nice day.  *
