 Q-Chem 5.2, Q-Chem, Inc., Pleasanton, CA (2019)
 Q-Chem 5.2.1 for Intel X86 EM64T Linux

User input:
--------------------------------------------------------------
$molecule
0 1
C        -0.79162825890000    2.98481557780000   -4.67003727720000
C        -1.17770288880000    3.61335790200000   -3.56657671170000
C        -1.33860620600000    3.03352981780000   -2.23678884080000
C        -1.53221280240000    3.88678551130000   -1.15674709940000
C        -1.68465799120000    3.39056738590000    0.13691882310000
C        -1.88847629020000    4.24908484210000    1.29897543150000
C        -2.00964407270000    5.57075155310000    1.30082040580000
C        -1.63946146530000    2.01418755360000    0.32772179810000
C        -1.45342452660000    1.14150100020000   -0.74306881540000
O        -1.46050062890000   -0.18281669670000   -0.41534005940000
C        -1.12804516910000   -1.15172898100000   -1.38485784790000
C         0.37181268870000   -1.19926274050000   -1.69623493070000
C         1.22927174870000   -1.41119449180000   -0.44798089060000
C         1.07245430330000   -2.79774675960000    0.17155727140000
C         2.03686235590000   -2.99517505290000    1.33786245690000
C         1.85955096680000   -4.35931719580000    1.99916445660000
C         2.85110870020000   -4.57309260250000    3.12709279470000
O         3.71091375940000   -3.80439344130000    3.43652945560000
O         2.70143535170000   -5.74084242720000    3.78808095510000
C        -1.30484541250000    1.65388621890000   -2.02297782460000
H        -0.69751424310000    3.50653639170000   -5.60697551150000
H        -0.54595223960000    1.93670615180000   -4.69278134070000
H        -1.38836001160000    4.67465157640000   -3.61924391240000
H        -1.55499998900000    4.95117505200000   -1.33089113290000
H        -1.94642555810000    3.71762908550000    2.24107983830000
H        -1.96736611510000    6.16332204660000    0.40321550850000
H        -2.16015627660000    6.11689051000000    2.21630344430000
H        -1.75670360760000    1.59031360480000    1.31346688880000
H        -1.70333530710000   -0.99794156710000   -2.30691165410000
H        -1.45039378710000   -2.09795885810000   -0.94317880540000
H         0.66895736580000   -0.25728777940000   -2.16146738330000
H         0.54618131300000   -2.00334115360000   -2.41415612910000
H         0.96539806340000   -0.65398787240000    0.29250192610000
H         2.27705786170000   -1.26163325510000   -0.71723207860000
H         1.26050862500000   -3.55906641480000   -0.59046069400000
H         0.04953117850000   -2.92585369060000    0.52999366140000
H         1.87608990260000   -2.21641845320000    2.08476473190000
H         3.06690385450000   -2.90285497750000    0.99018082250000
H         2.00497867980000   -5.15573823480000    1.26182423810000
H         0.84594556790000   -4.45458638930000    2.40127809100000
H         1.97192883400000   -6.27315625970000    3.44545305870000
H        -1.17889150710000    0.99936534790000   -2.86907404790000
$end

$rem
BASIS = 6-31G*
GUI = 2
METHOD = B3LYP
PRINT_ORBITALS false
MOLDEN_FORMAT false
--------------------------------------------------------------

             Standard Nuclear Orientation (Angstroms)
    I     Atom           X                Y                Z
 ----------------------------------------------------------------
    1      C       4.6350363240    -2.9306852554     0.9912290765
    2      C       4.8630313423    -1.6398155324     0.7828593986
    3      C       3.9205328614    -0.6550728852     0.2609352674
    4      C       4.2615524073     0.6910591000     0.3213778327
    5      C       3.3983298360     1.6764684345    -0.1549190479
    6      C       3.7148112931     3.1001275841    -0.1101552709
    7      C       4.8426583313     3.6517405612     0.3201610226
    8      C       2.1796623668     1.2836777163    -0.6966154528
    9      C       1.8221964022    -0.0613848286    -0.7728318259
   10      O       0.6124709119    -0.3042484455    -1.3549444205
   11      C       0.0749850503    -1.6082222877    -1.3483446426
   12      C      -0.4598586766    -2.0300451365     0.0245342346
   13      C      -1.4913547245    -1.0500359210     0.5847905118
   14      C      -2.8074406860    -1.0411314711    -0.1890214093
   15      C      -3.8383893593    -0.1382040934     0.4826895347
   16      C      -5.1445337023    -0.0805386110    -0.3049049656
   17      C      -6.1846008282     0.7786561667     0.3887474737
   18      O      -6.0384791068     1.3058342280     1.4501832568
   19      O      -7.3418321778     0.9141231490    -0.2934632069
   20      C       2.6946663243    -1.0273704247    -0.2948679144
   21      H       5.3994308010    -3.5767099798     1.3877848098
   22      H       3.6872154309    -3.3993720629     0.7878191484
   23      H       5.8374977652    -1.2370847078     1.0312896591
   24      H       5.2096575844     0.9696711179     0.7540929944
   25      H       2.9254033943     3.7439928618    -0.4784441869
   26      H       5.6704862359     3.0745623047     0.6945778861
   27      H       4.9815752241     4.7192866304     0.3113086506
   28      H       1.4850122777     2.0159147253    -1.0792359497
   29      H       0.8105965826    -2.3378800697    -1.7106535271
   30      H      -0.7415297257    -1.5678479841    -2.0736125411
   31      H       0.3731250027    -2.0915676734     0.7276744688
   32      H      -0.8987652374    -3.0253209809    -0.0710920332
   33      H      -1.0626935825    -0.0462899139     0.5777501573
   34      H      -1.6950144918    -1.3170286296     1.6240008356
   35      H      -3.1993541885    -2.0601067351    -0.2501494956
   36      H      -2.6325338599    -0.6862630910    -1.2062410442
   37      H      -3.4374614417     0.8719868885     0.5772602313
   38      H      -4.0497811464    -0.4984906645     1.4906072412
   39      H      -5.5573698898    -1.0880369098    -0.4216086458
   40      H      -4.9643034073     0.3267218960    -1.3048166713
   41      H      -7.3357013698     0.4430393626    -1.1366560261
   42      H       2.4495236510    -2.0741865319    -0.3598439359
 ----------------------------------------------------------------

    9    -886.6938409715      2.95e-06  Convergence criterion met
 Total energy in the final basis set =     -886.6938409715

                    Orbital Energies (a.u.)
 --------------------------------------------------------------

 Alpha MOs
 -- Occupied --
-19.1929 -19.1767 -19.1324 -10.3158 -10.2470 -10.2420 -10.2072 -10.1965
-10.1951 -10.1907 -10.1890 -10.1872 -10.1860 -10.1847 -10.1840 -10.1817
-10.1807 -10.1804 -10.1797 -10.1790  -1.1023  -1.0678  -1.0215  -0.8657
 -0.8217  -0.8047  -0.7940  -0.7737  -0.7420  -0.7243  -0.7208  -0.6766
 -0.6353  -0.6268  -0.6175  -0.6050  -0.5875  -0.5612  -0.5393  -0.5227
 -0.5127  -0.5018  -0.4992  -0.4893  -0.4747  -0.4610  -0.4563  -0.4522
 -0.4485  -0.4401  -0.4247  -0.4182  -0.4150  -0.4040  -0.3977  -0.3905
 -0.3816  -0.3759  -0.3696  -0.3672  -0.3601  -0.3519  -0.3468  -0.3426
 -0.3372  -0.3249  -0.3221  -0.3163  -0.3156  -0.3127  -0.2705  -0.2606
 -0.2199  -0.2154

          Ground-State Mulliken Net Atomic Charges

     Atom                 Charge (a.u.)
  ----------------------------------------
      1 C                    -0.354879
      2 C                    -0.111294
      3 C                     0.180127
      4 C                    -0.271181
      5 C                     0.191681
      6 C                    -0.112530
      7 C                    -0.352462
      8 C                    -0.262029
      9 C                     0.397299
     10 O                    -0.529053
     11 C                    -0.044857
     12 C                    -0.294004
     13 C                    -0.255585
     14 C                    -0.265729
     15 C                    -0.247274
     16 C                    -0.410493
     17 C                     0.610520
     18 O                    -0.433265
     19 O                    -0.569629
     20 C                    -0.258698
     21 H                     0.144652
     22 H                     0.139475
     23 H                     0.128697
     24 H                     0.122501
     25 H                     0.128319
     26 H                     0.143693
     27 H                     0.144728
     28 H                     0.133671
     29 H                     0.140993
     30 H                     0.152346
     31 H                     0.151157
     32 H                     0.133840
     33 H                     0.155602
     34 H                     0.135991
     35 H                     0.124728
     36 H                     0.134441
     37 H                     0.155968
     38 H                     0.157177
     39 H                     0.163983
     40 H                     0.160712
     41 H                     0.409815
     42 H                     0.130849
  ----------------------------------------
  Sum of atomic charges =     0.000000

                    Cartesian Multipole Moments
 -----------------------------------------------------------------
    Charge (ESU x 10^10)
                 0.0000
    Dipole Moment (Debye)
         X       0.5906      Y      -3.2163      Z      -2.9889
       Tot       4.4302
    Quadrupole Moments (Debye-Ang)
        XX    -126.0520     XY      16.2788     YY    -113.9905
        XZ      25.5683     YZ      -3.3546     ZZ    -123.5376

 Total job time:  76.02s(wall), 75.81s(cpu)
        *  Thank you very much for using Q-Chem.  Have a nice day.  *
