 Q-Chem 5.2, Q-Chem, Inc., Pleasanton, CA (2019)
 Q-Chem 5.2.1 for Intel X86 EM64T Linux

User input:
--------------------------------------------------------------
$molecule
0 1
C        -3.77343337120000    0.26745288450000    0.00073268950000
C        -2.80589434360000    1.17934246440000   -0.00181593070000
C        -1.37018632420000    0.95508815730000   -0.00057466960000
C        -0.53621755050000    2.06013764690000    0.00039024740000
C         0.85261176490000    1.96368775910000    0.00177608290000
C         1.49552152240000    0.74222702880000    0.00216619800000
C         2.93862717020000    0.57712709270000    0.00365354970000
C         3.84392270640000    1.55045363800000   -0.00734500000000
C         0.67766378070000   -0.42529623390000    0.00156515470000
N         1.27774197750000   -1.63252307200000    0.00239264090000
C         0.52479687040000   -2.69830710800000    0.00110859980000
C        -0.87739872700000   -2.60487723520000   -0.00133470300000
N        -1.48909340820000   -1.45192794970000   -0.00179937280000
C        -0.74629357810000   -0.32739976490000   -0.00019364340000
H        -4.80915674990000    0.56494509770000   -0.00043498880000
H        -3.55916186450000   -0.78509129240000    0.00391221900000
H        -3.07674295490000    2.22996801550000   -0.00473503620000
H        -0.98209359320000    3.04545291810000    0.00024081180000
H         1.43183341890000    2.87422940260000    0.00314811920000
H         3.25793589010000   -0.45568809530000    0.01358880990000
H         3.58381387280000    2.59556808320000   -0.01917799560000
H         4.89737602770000    1.32949632550000   -0.00536456180000
H         1.03228192790000   -3.65407810820000    0.00194399100000
H        -1.50499150040000   -3.48673292350000   -0.00289817620000
$end

$rem
BASIS = 6-31G*
GUI = 2
METHOD = B3LYP
PRINT_ORBITALS false
MOLDEN_FORMAT false
--------------------------------------------------------------

             Standard Nuclear Orientation (Angstroms)
    I     Atom           X                Y                Z
 ----------------------------------------------------------------
    1      C       3.6540639778     0.9784849447    -0.0006896817
    2      C       2.5269750769     1.6837132592     0.0014328582
    3      C       1.1627738005     1.1832110774     0.0002099974
    4      C       0.1289322332     2.1039763526    -0.0012537814
    5      C      -1.2142701905     1.7379755224    -0.0026715146
    6      C      -1.6060816637     0.4144260571    -0.0025909764
    7      C      -2.9890980615    -0.0295080868    -0.0040847101
    8      C      -4.0671509338     0.7481397992     0.0064656293
    9      C      -0.5758315937    -0.5707570445    -0.0014661333
   10      N      -0.9284189258    -1.8719769371    -0.0018266268
   11      C       0.0182877608    -2.7700676550    -0.0000641023
   12      C       1.3751887936    -2.4044161060     0.0024130337
   13      N       1.7497757935    -1.1541572396     0.0024336992
   14      C       0.8015388219    -0.1964725281     0.0003257789
   15      H       4.6116803438     1.4726464432     0.0004087421
   16      H       3.6496162347    -0.0956399326    -0.0034461100
   17      H       2.5872840359     2.7670129042     0.0039325741
   18      H       0.3736574388     3.1574283783    -0.0014877618
   19      H      -1.9602649624     2.5177667331    -0.0044490325
   20      H      -3.1004124103    -1.1048137908    -0.0136104277
   21      H      -4.0162988476     1.8239393086     0.0178809535
   22      H      -5.0571120083     0.3255723498     0.0045219610
   23      H      -0.2926321288    -3.8065851850    -0.0005314439
   24      H       2.1630161001    -3.1466215248     0.0043726525
 ----------------------------------------------------------------

    9    -572.7587390364      3.10e-06  Convergence criterion met
 Total energy in the final basis set =     -572.7587390364

                    Orbital Energies (a.u.)
 --------------------------------------------------------------

 Alpha MOs
 -- Occupied --
-14.3477 -14.3461 -10.2352 -10.2345 -10.2334 -10.2327 -10.2043 -10.2030
-10.1991 -10.1981 -10.1861 -10.1850 -10.1807 -10.1697  -0.9912  -0.9187
 -0.8669  -0.8079  -0.7717  -0.7646  -0.7202  -0.6744  -0.6619  -0.6300
 -0.5793  -0.5634  -0.5427  -0.5266  -0.5058  -0.4802  -0.4596  -0.4482
 -0.4419  -0.4411  -0.4338  -0.4036  -0.3931  -0.3665  -0.3632  -0.3591
 -0.3555  -0.3509  -0.3046  -0.3016  -0.2681  -0.2636  -0.2418  -0.2083

          Ground-State Mulliken Net Atomic Charges

     Atom                 Charge (a.u.)
  ----------------------------------------
      1 C                    -0.343897
      2 C                    -0.124161
      3 C                     0.179013
      4 C                    -0.222176
      5 C                    -0.207849
      6 C                     0.139441
      7 C                    -0.097219
      8 C                    -0.349444
      9 C                     0.217997
     10 N                    -0.471126
     11 C                     0.027463
     12 C                     0.035507
     13 N                    -0.483209
     14 C                     0.241126
     15 H                     0.132526
     16 H                     0.185501
     17 H                     0.121540
     18 H                     0.136221
     19 H                     0.134503
     20 H                     0.164829
     21 H                     0.139612
     22 H                     0.146931
     23 H                     0.148962
     24 H                     0.147910
  ----------------------------------------
  Sum of atomic charges =     0.000000

                    Cartesian Multipole Moments
 -----------------------------------------------------------------
    Charge (ESU x 10^10)
                 0.0000
    Dipole Moment (Debye)
         X      -0.0857      Y       0.0540      Z      -0.0008
       Tot       0.1013
    Quadrupole Moments (Debye-Ang)
        XX     -78.8324     XY      -3.5594     YY     -67.8854
        XZ      -0.0075     YZ       0.0208     ZZ     -84.1148

 Total job time:  38.81s(wall), 38.69s(cpu)
        *  Thank you very much for using Q-Chem.  Have a nice day.  *
