 Q-Chem 5.2, Q-Chem, Inc., Pleasanton, CA (2019)
 Q-Chem 5.2.1 for Intel X86 EM64T Linux

User input:
--------------------------------------------------------------
$molecule
0 1
C         2.66659372840000   -1.50323498450000    0.00184399430000
C         2.41237353150000   -0.19717384680000   -0.00145751270000
C         1.09165456940000    0.37344646370000   -0.00089657130000
C         0.70200229740000    1.69510144030000   -0.00062977440000
C        -0.70199659710000    1.69510650540000    0.00068063860000
C        -1.09166237780000    0.37345824650000    0.00089656300000
C        -2.41238149730000   -0.19716779740000    0.00131075440000
C        -2.66658104510000   -1.50324759370000   -0.00179789220000
O        -0.00000656680000   -0.42251318460000    0.00004317340000
H         3.67245653890000   -1.88394688050000    0.00133069530000
H         1.86903140500000   -2.22621558890000    0.00526432710000
H         3.21402994400000    0.52833839770000   -0.00457380350000
H         1.34998559530000    2.54820324780000   -0.00118813500000
H        -1.34997055080000    2.54821195050000    0.00135879610000
H        -3.21403356920000    0.52833742910000    0.00414181440000
H        -1.86899454270000   -2.22620667490000   -0.00484124580000
H        -3.67243167420000   -1.88399336540000   -0.00158431900000
$end

$rem
BASIS = 6-31G*
GUI = 2
METHOD = B3LYP
PRINT_ORBITALS false
MOLDEN_FORMAT false
--------------------------------------------------------------

             Standard Nuclear Orientation (Angstroms)
    I     Atom           X                Y                Z
 ----------------------------------------------------------------
    1      C       2.6665928645    -1.4871472824     0.0018532309
    2      C       2.4123729352    -0.1810860907    -0.0014475240
    3      C       1.0916540822     0.3895344765    -0.0008910300
    4      C       0.7020020667     1.7111895287    -0.0006239948
    5      C      -0.7019968329     1.7111948657     0.0006808750
    6      C      -1.0916628721     0.3895466825     0.0008934841
    7      C      -2.4123821044    -0.1810791045     0.0013016940
    8      C      -2.6665818946    -1.4871588471    -0.0018097120
    9      O      -0.0000072129    -0.4064249603     0.0000433346
   10      H       3.6724556028    -1.8678593738     0.0013433915
   11      H       1.8690303867    -2.2101277359     0.0052694429
   12      H       3.2140295015     0.5444260017    -0.0045596744
   13      H       1.3499855331     2.5642912106    -0.0011786502
   14      H      -1.3499706230     2.5643004362     0.0013576210
   15      H      -3.2140340461     0.5444262744     0.0041305642
   16      H      -1.8689955211    -2.2101180797    -0.0048508885
   17      H      -3.6724325987    -1.8679044230    -0.0016006220
 ----------------------------------------------------------------

    9    -384.8333112636      2.22e-06  Convergence criterion met
 Total energy in the final basis set =     -384.8333112636

                    Orbital Energies (a.u.)
 --------------------------------------------------------------

 Alpha MOs
 -- Occupied --
-19.2144 -10.2404 -10.2404 -10.1954 -10.1954 -10.1853 -10.1848 -10.1793
-10.1793  -1.1201  -0.8150  -0.8058  -0.7761  -0.7100  -0.6266  -0.6079
 -0.5742  -0.5513  -0.5012  -0.4606  -0.4578  -0.4557  -0.4442  -0.4016
 -0.3988  -0.3723  -0.3640  -0.3610  -0.3186  -0.2896  -0.2690  -0.1930

          Ground-State Mulliken Net Atomic Charges

     Atom                 Charge (a.u.)
  ----------------------------------------
      1 C                    -0.354884
      2 C                    -0.113274
      3 C                     0.338061
      4 C                    -0.204605
      5 C                    -0.204604
      6 C                     0.338060
      7 C                    -0.113277
      8 C                    -0.354885
      9 O                    -0.489801
     10 H                     0.144068
     11 H                     0.155895
     12 H                     0.138633
     13 H                     0.141008
     14 H                     0.141007
     15 H                     0.138634
     16 H                     0.155896
     17 H                     0.144069
  ----------------------------------------
  Sum of atomic charges =     0.000000

                    Cartesian Multipole Moments
 -----------------------------------------------------------------
    Charge (ESU x 10^10)
                 0.0000
    Dipole Moment (Debye)
         X       0.0000      Y       0.8455      Z      -0.0001
       Tot       0.8455
    Quadrupole Moments (Debye-Ang)
        XX     -45.4437     XY      -0.0000     YY     -47.2784
        XZ      -0.0122     YZ      -0.0001     ZZ     -56.5066

 Total job time:  16.52s(wall), 16.45s(cpu)
        *  Thank you very much for using Q-Chem.  Have a nice day.  *
