 Q-Chem 5.2, Q-Chem, Inc., Pleasanton, CA (2019)
 Q-Chem 5.2.1 for Intel X86 EM64T Linux

User input:
--------------------------------------------------------------
$molecule
0 1
C         3.74808283180000    1.02557774510000    0.31937311180000
C         2.87239292640000    0.28975686540000   -0.34911382570000
C         1.42418899980000    0.32522995630000   -0.11977453900000
C         0.80972032170000    1.56214404330000    0.06788179900000
C        -0.55310708150000    1.65133944950000    0.22961663640000
C        -1.35390797780000    0.51044637150000    0.19621805690000
C        -2.80334266550000    0.71733311470000    0.29541243190000
C        -3.71448642520000    0.18552143210000   -0.50595196480000
C        -0.74722863200000   -0.74322821690000    0.06444258530000
C        -1.55544997080000   -2.00532051870000    0.14282530490000
C         0.63978655640000   -0.83317490850000   -0.09849352720000
C         1.27124232360000   -2.19095561620000   -0.21165587990000
H         4.80242503130000    0.99239348750000    0.10243374910000
H         3.44606676990000    1.67710991590000    1.12269276990000
H         3.22026747350000   -0.36678521250000   -1.13697329770000
H         1.41341467680000    2.45742884440000    0.05885282640000
H        -1.01995284730000    2.61817682130000    0.35464577500000
H        -3.11025037700000    1.42680067750000    1.05547340620000
H        -3.44984331760000   -0.48154800620000   -1.30900639580000
H        -4.76172571420000    0.41648465960000   -0.40323129660000
H        -2.56505481510000   -1.80039635950000    0.48578726110000
H        -1.09384367760000   -2.70926528330000    0.83355524060000
H        -1.61255484510000   -2.48954397910000   -0.83228456530000
H         0.83302360640000   -2.75105522790000   -1.03702400300000
H         1.10346706360000   -2.76140099550000    0.70210013660000
H         2.34301688450000   -2.12330754390000   -0.36382471730000
$end

$rem
BASIS = 6-31G*
GUI = 2
METHOD = B3LYP
PRINT_ORBITALS false
MOLDEN_FORMAT false
--------------------------------------------------------------

             Standard Nuclear Orientation (Angstroms)
    I     Atom           X                Y                Z
 ----------------------------------------------------------------
    1      C      -3.8244730702    -0.7859285835     0.2225495729
    2      C      -2.8884143338    -0.0666814032    -0.3787968320
    3      C      -1.4493951031    -0.2349820208    -0.1506564860
    4      C      -0.9348175220    -1.5277354859    -0.0685498016
    5      C       0.4154799143    -1.7369393995     0.0874728416
    6      C       1.3030125901    -0.6636420892     0.1534515442
    7      C       2.7310141794    -0.9911992831     0.2372388247
    8      C       3.6876562164    -0.4660340852    -0.5139129848
    9      C       0.7970282892     0.6403826142     0.1284708089
   10      C       1.7004470866     1.8239481994     0.3162194269
   11      C      -0.5773136540     0.8523309868    -0.0287291512
   12      C      -1.1000443290     2.2601155034    -0.0262897575
   13      H      -4.8711273588    -0.6518288295     0.0072976004
   14      H      -3.5810360079    -1.5252595488     0.9676391412
   15      H      -3.1773106145     0.6799014578    -1.1081388086
   16      H      -1.6063467762    -2.3689079136    -0.1553868877
   17      H       0.8044722483    -2.7445224513     0.1300535412
   18      H       2.9751830940    -1.7847696402     0.9342731711
   19      H       3.4826856386     0.2857777465    -1.2573375345
   20      H       4.7127938716    -0.7862833992    -0.4294213209
   21      H       2.6880393593     1.5120228013     0.6422298637
   22      H       1.2892092548     2.5004235276     1.0638764483
   23      H       1.8034572922     2.3836012017    -0.6136999243
   24      H      -0.6124617557     2.8524920971    -0.7998096106
   25      H      -0.8961502392     2.7356393971     0.9332990883
   26      H      -2.1724895902     2.2899038342    -0.1856828037
 ----------------------------------------------------------------

    8    -465.6672976005      3.85e-06  Convergence criterion met
 Total energy in the final basis set =     -465.6672976005

                    Orbital Energies (a.u.)
 --------------------------------------------------------------

 Alpha MOs
 -- Occupied --
-10.1870 -10.1869 -10.1865 -10.1857 -10.1855 -10.1850 -10.1774 -10.1767
-10.1758 -10.1758 -10.1756 -10.1708  -0.8658  -0.8069  -0.7806  -0.7607
 -0.7282  -0.6915  -0.6704  -0.6213  -0.5764  -0.5664  -0.5364  -0.4908
 -0.4874  -0.4592  -0.4410  -0.4360  -0.4224  -0.4138  -0.3977  -0.3961
 -0.3886  -0.3853  -0.3793  -0.3557  -0.3438  -0.3287  -0.3216  -0.2888
 -0.2622  -0.2323  -0.2131

          Ground-State Mulliken Net Atomic Charges

     Atom                 Charge (a.u.)
  ----------------------------------------
      1 C                    -0.335483
      2 C                    -0.143868
      3 C                     0.105890
      4 C                    -0.181422
      5 C                    -0.183594
      6 C                     0.099805
      7 C                    -0.149745
      8 C                    -0.327743
      9 C                     0.072934
     10 C                    -0.537088
     11 C                     0.059450
     12 C                    -0.529474
     13 H                     0.139625
     14 H                     0.143835
     15 H                     0.138289
     16 H                     0.126135
     17 H                     0.122373
     18 H                     0.135822
     19 H                     0.148160
     20 H                     0.141352
     21 H                     0.168293
     22 H                     0.153076
     23 H                     0.155345
     24 H                     0.158009
     25 H                     0.164763
     26 H                     0.155263
  ----------------------------------------
  Sum of atomic charges =     0.000000

                    Cartesian Multipole Moments
 -----------------------------------------------------------------
    Charge (ESU x 10^10)
                 0.0000
    Dipole Moment (Debye)
         X       0.1543      Y       0.4347      Z      -0.0101
       Tot       0.4614
    Quadrupole Moments (Debye-Ang)
        XX     -67.3845     XY      -0.5116     YY     -68.1992
        XZ       0.4862     YZ      -2.3516     ZZ     -73.7100

 Total job time:  30.20s(wall), 30.10s(cpu)
        *  Thank you very much for using Q-Chem.  Have a nice day.  *
