 Q-Chem 5.2, Q-Chem, Inc., Pleasanton, CA (2019)
 Q-Chem 5.2.1 for Intel X86 EM64T Linux

User input:
--------------------------------------------------------------
$molecule
0 1
C        -3.81388699310000    1.43321503140000    0.17429278240000
C        -3.37061917890000    0.18838425800000    0.04175660210000
C        -1.98084607040000   -0.24190617560000   -0.03179666500000
C        -1.69451074400000   -1.60132230250000   -0.18235036310000
C        -0.39436044480000   -2.05228817430000   -0.25241513930000
C         0.68570368670000   -1.17304604720000   -0.16758546480000
C         2.04359836470000   -1.70790817880000   -0.16758644330000
C         3.04926791690000   -1.24120390650000    0.55883415380000
C         0.40721220840000    0.19513659690000   -0.04054984470000
C         1.48617505850000    1.22861204860000   -0.09401421110000
O         2.29560922300000    1.31756970110000   -0.97110079660000
O         1.45264638200000    2.13035460690000    0.91388465110000
C        -0.90516927810000    0.64240890460000    0.03286885470000
H        -4.86763369150000    1.64722281450000    0.21929979350000
H        -3.16076755180000    2.28657555850000    0.23877492870000
H        -4.09032198270000   -0.61864830560000   -0.02081054420000
H        -2.50918399220000   -2.30847094270000   -0.24664961970000
H        -0.19891866750000   -3.10938144390000   -0.36043554230000
H         2.18592300500000   -2.59084433550000   -0.77756513690000
H         2.94582721740000   -0.39308276310000    1.21487719600000
H         4.02365034360000   -1.69664422000000    0.52702943600000
H         0.74093063040000    1.94543835470000    1.54164170990000
H        -1.09317159660000    1.70451280140000    0.10394776930000
$end

$rem
BASIS = 6-31G*
GUI = 2
METHOD = B3LYP
PRINT_ORBITALS false
MOLDEN_FORMAT false
--------------------------------------------------------------

             Standard Nuclear Orientation (Angstroms)
    I     Atom           X                Y                Z
 ----------------------------------------------------------------
    1      C       3.9019636448    -1.0960195836     0.0508668188
    2      C       3.3428741809     0.1084985496     0.0363448832
    3      C       1.9185800434     0.4111071753    -0.0065906867
    4      C       1.5048708196     1.7456899597    -0.0265909639
    5      C       0.1678464920     2.0768828497    -0.0632966552
    6      C      -0.8241784707     1.0957682547    -0.0733934204
    7      C      -2.2265570338     1.4978045194    -0.0326912852
    8      C      -3.1829443596     0.8697921617     0.6364834092
    9      C      -0.4174703537    -0.2459430088    -0.0777169393
   10      C      -1.3939421780    -1.3662621586    -0.2404392752
   11      O      -2.1921306925    -1.4450106510    -1.1287363985
   12      O      -1.2744036309    -2.3549000487     0.6752187330
   13      C       0.9313842003    -0.5726519650    -0.0372121375
   14      H       4.9712632401    -1.2132039032     0.0836277345
   15      H       3.3325056774    -2.0092970292     0.0265960187
   16      H       3.9829988811     0.9819598937     0.0585705634
   17      H       2.2489821353     2.5293036297    -0.0150124880
   18      H      -0.1267560378     3.1163449784    -0.0696140035
   19      H      -2.4522676514     2.4187204690    -0.5550657655
   20      H      -2.9991934491    -0.0247891138     1.2077643119
   21      H      -4.1960486219     1.2323633054     0.6410058145
   22      H      -0.5827925177    -2.1659441828     1.3238958524
   23      H       1.2190210189    -1.6141729749    -0.0682092017
 ----------------------------------------------------------------

    9    -575.5974329449      6.37e-06  Convergence criterion met
 Total energy in the final basis set =     -575.5974329449

                    Orbital Energies (a.u.)
 --------------------------------------------------------------

 Alpha MOs
 -- Occupied --
-19.1951 -19.1298 -10.3173 -10.2143 -10.2134 -10.2113 -10.2090 -10.2038
-10.2025 -10.2023 -10.1950 -10.1922 -10.1859  -1.1023  -1.0198  -0.8857
 -0.8223  -0.7788  -0.7765  -0.7291  -0.6592  -0.6454  -0.6174  -0.5874
 -0.5780  -0.5349  -0.5050  -0.4890  -0.4735  -0.4533  -0.4489  -0.4407
 -0.4340  -0.4251  -0.4072  -0.3905  -0.3854  -0.3716  -0.3616  -0.3526
 -0.3270  -0.3167  -0.2794  -0.2728  -0.2620  -0.2252

          Ground-State Mulliken Net Atomic Charges

     Atom                 Charge (a.u.)
  ----------------------------------------
      1 C                    -0.350803
      2 C                    -0.115127
      3 C                     0.184868
      4 C                    -0.188157
      5 C                    -0.191533
      6 C                     0.138363
      7 C                    -0.117332
      8 C                    -0.325406
      9 C                    -0.013140
     10 C                     0.518706
     11 O                    -0.420786
     12 O                    -0.570153
     13 C                    -0.250453
     14 H                     0.151241
     15 H                     0.145467
     16 H                     0.132184
     17 H                     0.136954
     18 H                     0.138248
     19 H                     0.139236
     20 H                     0.152289
     21 H                     0.151940
     22 H                     0.412034
     23 H                     0.141362
  ----------------------------------------
  Sum of atomic charges =     0.000000

                    Cartesian Multipole Moments
 -----------------------------------------------------------------
    Charge (ESU x 10^10)
                 0.0000
    Dipole Moment (Debye)
         X       3.0323      Y       2.0584      Z       2.3442
       Tot       4.3505
    Quadrupole Moments (Debye-Ang)
        XX     -73.1939     XY      -7.4590     YY     -71.5112
        XZ      -4.0149     YZ      -4.9435     ZZ     -77.9734

 Total job time:  32.46s(wall), 32.35s(cpu)
        *  Thank you very much for using Q-Chem.  Have a nice day.  *
