 Q-Chem 5.2, Q-Chem, Inc., Pleasanton, CA (2019)
 Q-Chem 5.2.1 for Intel X86 EM64T Linux

User input:
--------------------------------------------------------------
$molecule
0 1
C         3.33140296330000    2.30057320400000    0.15223538300000
C         2.77312921310000    1.10928777850000   -0.04750187240000
C         1.35623154380000    0.85428566840000    0.03560952380000
S         0.21979255060000    2.16056886140000    0.09936951780000
C        -1.13067194850000    1.07391803570000    0.06285693290000
C        -2.45817845100000    1.64190901480000    0.03598396230000
C        -3.50895272840000    1.09735484570000   -0.56664201770000
C        -0.72035040030000   -0.24011600550000    0.00151166850000
C        -1.70001595840000   -1.36948280720000    0.16406759350000
O        -2.57034519510000   -1.31249416860000    0.99109229160000
O        -1.57260875170000   -2.41125704240000   -0.64723279280000
C         0.69959518610000   -0.36475484380000   -0.01416601970000
C         1.40745147140000   -1.65888462480000   -0.13201422370000
O         1.05518216160000   -2.52215760550000   -0.90089986390000
O         2.48349726040000   -1.83799229280000    0.63933533660000
H         4.39305861290000    2.44429261330000    0.06389439090000
H         2.74109839200000    3.16381266210000    0.41121563580000
H         3.39445629710000    0.26469219460000   -0.31791592570000
H        -2.54424828390000    2.61213666680000    0.50846989970000
H        -3.45421594260000    0.15443825700000   -1.08161411470000
H        -4.46783564790000    1.58431524810000   -0.55403451150000
H        -0.69137021830000   -2.47742591420000   -1.07956691600000
H         2.63842668410000   -1.10695075100000    1.25348107540000
$end

$rem
BASIS = 6-31G*
GUI = 2
METHOD = B3LYP
PRINT_ORBITALS false
MOLDEN_FORMAT false
--------------------------------------------------------------

             Standard Nuclear Orientation (Angstroms)
    I     Atom           X                Y                Z
 ----------------------------------------------------------------
    1      C       3.6941484201    -1.6074482032     0.0384502351
    2      C       2.9154911355    -0.5359622761     0.1662636056
    3      C       1.4795749754    -0.5575413518     0.0350701986
    4      S       0.6116985695    -2.0568275583     0.0056403240
    5      C      -0.9193585035    -1.2448900531    -0.0445520640
    6      C      -2.1166081739    -2.0522178393    -0.0239487739
    7      C      -3.2708605559    -1.6912321070     0.5248814700
    8      C      -0.7656102484     0.1244550262    -0.0363056331
    9      C      -1.9339537360     1.0400020870    -0.2779365120
   10      O      -2.7494453068     0.7841246929    -1.1230346090
   11      O      -2.0322399652     2.1206595791     0.4851189724
   12      C       0.6042467397     0.5161651901     0.0093131993
   13      C       1.0518737145     1.9247096959     0.0824779216
   14      O       0.5177251921     2.7376561728     0.7996406752
   15      O       2.1006750806     2.2712302254    -0.6691027182
   16      H       4.7602703204    -1.5437195766     0.1604947910
   17      H       3.2857327703    -2.5770521497    -0.1934494504
   18      H       3.3574733169     0.4217112121     0.4112657430
   19      H      -2.0027067658    -3.0404296124    -0.4510982029
   20      H      -3.4118300745    -0.7339332507     0.9949778050
   21      H      -4.1201564824    -2.3509767705     0.5114932558
   22      H      -1.1943496393     2.3707930711     0.9359465497
   23      H       2.4110068322     1.5572416359    -1.2431361220
 ----------------------------------------------------------------

    9   -1084.9198273779      8.48e-06  Convergence criterion met
 Total energy in the final basis set =    -1084.9198273779

                    Orbital Energies (a.u.)
 --------------------------------------------------------------

 Alpha MOs
 -- Occupied --
-88.9369 -19.2275 -19.1756 -19.1707 -19.1234 -10.3565 -10.3172 -10.2591
-10.2515 -10.2392 -10.2302 -10.2270 -10.2147 -10.2115 -10.1987  -7.9988
 -5.9627  -5.9590  -5.9559  -1.1400  -1.0945  -1.0566  -1.0098  -0.9253
 -0.8369  -0.8057  -0.7801  -0.7426  -0.6745  -0.6515  -0.6461  -0.6209
 -0.5958  -0.5750  -0.5470  -0.5190  -0.4901  -0.4818  -0.4782  -0.4711
 -0.4532  -0.4410  -0.4326  -0.4306  -0.4244  -0.4104  -0.3963  -0.3913
 -0.3757  -0.3629  -0.3484  -0.3408  -0.3121  -0.3056  -0.2912  -0.2849
 -0.2628  -0.2291

          Ground-State Mulliken Net Atomic Charges

     Atom                 Charge (a.u.)
  ----------------------------------------
      1 C                    -0.361637
      2 C                    -0.104566
      3 C                    -0.196685
      4 S                     0.291996
      5 C                    -0.183434
      6 C                    -0.089813
      7 C                    -0.305178
      8 C                     0.047320
      9 C                     0.533013
     10 O                    -0.440987
     11 O                    -0.589763
     12 C                    -0.009999
     13 C                     0.578965
     14 O                    -0.469332
     15 O                    -0.554197
     16 H                     0.164017
     17 H                     0.168734
     18 H                     0.165947
     19 H                     0.145437
     20 H                     0.172180
     21 H                     0.157926
     22 H                     0.449607
     23 H                     0.430451
  ----------------------------------------
  Sum of atomic charges =     0.000000

                    Cartesian Multipole Moments
 -----------------------------------------------------------------
    Charge (ESU x 10^10)
                -0.0000
    Dipole Moment (Debye)
         X       4.4366      Y      -4.1800      Z       0.2388
       Tot       6.1002
    Quadrupole Moments (Debye-Ang)
        XX     -87.8958     XY       4.9968     YY     -96.6450
        XZ      -8.2909     YZ      -0.3829     ZZ     -93.7433

 Total job time:  44.48s(wall), 44.01s(cpu)
        *  Thank you very much for using Q-Chem.  Have a nice day.  *
