 Q-Chem 5.2, Q-Chem, Inc., Pleasanton, CA (2019)
 Q-Chem 5.2.1 for Intel X86 EM64T Linux

User input:
--------------------------------------------------------------
$molecule
0 1
C        -4.20647575500000    0.14823904130000   -0.00330636710000
C        -2.99102017870000   -0.39584664850000    0.00110405370000
C        -1.77610168890000    0.37379752890000    0.00144134070000
C        -0.54940525920000   -0.17356475840000    0.00293246910000
C         0.65930997390000    0.60352547910000    0.00202173270000
C         1.87624232850000    0.07084744940000   -0.00002615740000
F         2.15553849470000   -1.22852615290000   -0.00129739820000
F         3.00743473080000    0.76976865340000   -0.00134405830000
H        -5.09969941080000   -0.45160436420000   -0.00386887070000
H        -4.34532592700000    1.21697448380000   -0.00682370690000
H        -2.87708367030000   -1.47204331960000    0.00438832170000
H        -1.88305309000000    1.45086975510000   -0.00026294180000
H        -0.43448222030000   -1.24892371250000    0.00417320410000
H         0.58868527660000    1.68022512230000    0.00252570140000
$end

$rem
BASIS = 6-31G*
GUI = 2
METHOD = B3LYP
PRINT_ORBITALS false
MOLDEN_FORMAT false
--------------------------------------------------------------

             Standard Nuclear Orientation (Angstroms)
    I     Atom           X                Y                Z
 ----------------------------------------------------------------
    1      C       4.0478706889    -0.1384226043    -0.0030670721
    2      C       2.8329073965     0.4067629944     0.0011529498
    3      C       1.6172933685    -0.3617820940     0.0015913411
    4      C       0.3910923572     0.1866896184     0.0028906992
    5      C      -0.8183250792    -0.5893074137     0.0020830748
    6      C      -2.0347750967    -0.0555295678    -0.0001527677
    7      F      -2.3128960038     1.2440957634    -0.0017283083
    8      F      -3.1665990196    -0.7534277964    -0.0013804552
    9      H       4.9416364708     0.4606126523    -0.0037114503
   10      H       4.1857545078    -1.2072839297    -0.0063393349
   11      H       2.7199439918     1.4830629634     0.0041919138
   12      H       1.7232707867    -1.4389509503     0.0001321564
   13      H       0.2771417816     1.2621523093     0.0038862595
   14      H      -0.7486741391    -1.6660703459     0.0028299759
 ----------------------------------------------------------------

    9    -431.8668923215      9.76e-06  Convergence criterion met
 Total energy in the final basis set =     -431.8668923215

                    Orbital Energies (a.u.)
 --------------------------------------------------------------

 Alpha MOs
 -- Occupied --
-24.7415 -24.7375 -10.3572 -10.2038 -10.2000 -10.1919 -10.1911 -10.1809
 -1.2847  -1.2254  -0.8326  -0.7922  -0.7295  -0.6458  -0.6014  -0.5776
 -0.5574  -0.5231  -0.5188  -0.4764  -0.4521  -0.4413  -0.4314  -0.4191
 -0.3962  -0.3857  -0.3540  -0.3442  -0.2882  -0.2083

          Ground-State Mulliken Net Atomic Charges

     Atom                 Charge (a.u.)
  ----------------------------------------
      1 C                    -0.360067
      2 C                    -0.053999
      3 C                    -0.121096
      4 C                    -0.117782
      5 C                    -0.233156
      6 C                     0.535676
      7 F                    -0.237282
      8 F                    -0.244394
      9 H                     0.144173
     10 H                     0.140400
     11 H                     0.126614
     12 H                     0.122747
     13 H                     0.138816
     14 H                     0.159350
  ----------------------------------------
  Sum of atomic charges =     0.000000

                    Cartesian Multipole Moments
 -----------------------------------------------------------------
    Charge (ESU x 10^10)
                 0.0000
    Dipole Moment (Debye)
         X       0.7918      Y      -0.3823      Z       0.0009
       Tot       0.8793
    Quadrupole Moments (Debye-Ang)
        XX     -46.1648     XY       0.3169     YY     -41.9881
        XZ      -0.0107     YZ       0.0091     ZZ     -47.4595

 Total job time:  8.49s(wall), 8.44s(cpu)
        *  Thank you very much for using Q-Chem.  Have a nice day.  *
