 Q-Chem 5.2, Q-Chem, Inc., Pleasanton, CA (2019)
 Q-Chem 5.2.1 for Intel X86 EM64T Linux

User input:
--------------------------------------------------------------
$molecule
0 1
C         4.42805053310000    0.32927402250000   -0.38567992840000
C         3.37355670900000   -0.43445673990000   -0.12446964200000
C         1.98941912100000    0.00361307500000   -0.00921182390000
C         1.57509731810000    1.31295882640000   -0.25744480780000
C         0.25006487880000    1.66630539840000   -0.13055772210000
C        -0.72186719170000    0.73962688540000    0.24960811330000
C        -2.12083267340000    1.14070741890000    0.37746735620000
C        -2.71020246890000    2.06165220970000   -0.37289718270000
C        -0.31317079910000   -0.57572477340000    0.50816058700000
C        -1.31725896310000   -1.63437933200000    0.90403439550000
C        -2.31331468940000   -1.79511529030000   -0.12690792370000
N        -3.09190219440000   -1.92126157120000   -0.95396268760000
C         1.01761001060000   -0.92430800890000    0.36699245400000
H         5.41807244610000   -0.08838582820000   -0.44965812280000
H         4.35514243670000    1.39168615610000   -0.54222210560000
H         3.52333672420000   -1.49639506370000    0.03066019560000
H         2.29434154280000    2.05988271800000   -0.55441907990000
H        -0.04834590610000    2.68784233930000   -0.31201075440000
H        -2.70163293310000    0.63293473750000    1.13690546210000
H        -2.19241376020000    2.56882985530000   -1.16938701920000
H        -3.74519809580000    2.32189830880000   -0.23490366060000
H        -1.82353621060000   -1.36223843150000    1.83653020460000
H        -0.81657530490000   -2.59511613800000    1.05267156310000
H         1.31972043640000   -1.94602203870000    0.55691243150000
$end

$rem
BASIS = 6-31G*
GUI = 2
METHOD = B3LYP
PRINT_ORBITALS false
MOLDEN_FORMAT false
--------------------------------------------------------------

             Standard Nuclear Orientation (Angstroms)
    I     Atom           X                Y                Z
 ----------------------------------------------------------------
    1      C       4.4139259430     0.0442905872     0.3168416454
    2      C       3.2927315384     0.7341781346     0.1423395105
    3      C       1.9497019524     0.1895095706    -0.0013061525
    4      C       1.6547110997    -1.1689931393     0.1216542124
    5      C       0.3630213013    -1.6233515081    -0.0258620074
    6      C      -0.6922209158    -0.7531626586    -0.3036142494
    7      C      -2.0534496833    -1.2612417927    -0.4560276193
    8      C      -2.5470143212    -2.2985866653     0.2064318649
    9      C      -0.4035441339     0.6117985556    -0.4361989723
   10      C      -1.5025081942     1.6115295347    -0.7163320681
   11      C      -2.4893805645     1.5837753109     0.3353892597
   12      N      -3.2604390285     1.5605304257     1.1786326943
   13      C       0.8945485571     1.0605580938    -0.2749956231
   14      H       5.3651904906     0.5390882030     0.4114324927
   15      H       4.4359796547    -1.0305593441     0.3692996697
   16      H       3.3473162997     1.8151692967     0.0904652950
   17      H       2.4411803969    -1.8751028419     0.3367737269
   18      H       0.1573868909    -2.6798787843     0.0576635874
   19      H      -2.6899598201    -0.7353668070    -1.1561837586
   20      H      -1.9726316865    -2.8329852322     0.9441534460
   21      H      -3.5580496673    -2.6341095394     0.0540569266
   22      H      -2.0006400982     1.3874444387    -1.6658457495
   23      H      -1.0895301267     2.6223591245    -0.7751963161
   24      H       1.1036953919     2.1184043661    -0.3669669854
 ----------------------------------------------------------------

    9    -518.5931319070      3.28e-06  Convergence criterion met
 Total energy in the final basis set =     -518.5931319070

                    Orbital Energies (a.u.)
 --------------------------------------------------------------

 Alpha MOs
 -- Occupied --
-14.3236 -10.2398 -10.2194 -10.2138 -10.2057 -10.2042 -10.1988 -10.1973
-10.1968 -10.1961 -10.1953 -10.1869 -10.1864  -0.9080  -0.8823  -0.8242
 -0.8029  -0.7731  -0.7391  -0.7172  -0.6435  -0.6216  -0.5766  -0.5652
 -0.5245  -0.5113  -0.4972  -0.4762  -0.4606  -0.4538  -0.4334  -0.4300
 -0.4225  -0.3932  -0.3856  -0.3733  -0.3551  -0.3506  -0.3485  -0.3338
 -0.3219  -0.3124  -0.2750  -0.2616  -0.2210

          Ground-State Mulliken Net Atomic Charges

     Atom                 Charge (a.u.)
  ----------------------------------------
      1 C                    -0.351704
      2 C                    -0.114192
      3 C                     0.191053
      4 C                    -0.182008
      5 C                    -0.186632
      6 C                     0.127799
      7 C                    -0.128337
      8 C                    -0.325900
      9 C                     0.121319
     10 C                    -0.443796
     11 C                     0.361858
     12 N                    -0.460241
     13 C                    -0.268496
     14 H                     0.148096
     15 H                     0.145185
     16 H                     0.129018
     17 H                     0.131577
     18 H                     0.136255
     19 H                     0.133591
     20 H                     0.148996
     21 H                     0.150914
     22 H                     0.205489
     23 H                     0.202449
     24 H                     0.127705
  ----------------------------------------
  Sum of atomic charges =     0.000000

                    Cartesian Multipole Moments
 -----------------------------------------------------------------
    Charge (ESU x 10^10)
                 0.0000
    Dipole Moment (Debye)
         X       2.5993      Y      -0.5154      Z      -2.4989
       Tot       3.6423
    Quadrupole Moments (Debye-Ang)
        XX     -80.7923     XY       5.2695     YY     -68.3652
        XZ       9.8417     YZ      -6.2593     ZZ     -80.2042

 Total job time:  33.18s(wall), 33.07s(cpu)
        *  Thank you very much for using Q-Chem.  Have a nice day.  *
