 Q-Chem 5.2, Q-Chem, Inc., Pleasanton, CA (2019)
 Q-Chem 5.2.1 for Intel X86 EM64T Linux

User input:
--------------------------------------------------------------
$molecule
0 1
C        -1.47342746140000   -2.85095287010000   -0.28296986990000
C        -2.21049367550000   -1.78528131090000    0.00781930040000
C        -1.74873982560000   -0.41688280150000    0.03531372210000
C        -2.54653175000000    0.73133988610000   -0.11751007300000
N        -1.81830245130000    1.82704632030000   -0.06688462720000
N        -0.56065255160000    1.44383967620000    0.10684973610000
C         0.45441351020000    2.44259033870000    0.27793488400000
C        -0.45118724980000    0.09178657820000    0.17850366630000
C         0.75748299820000   -0.64512485840000    0.45900360820000
C         1.98240281800000   -0.39750072420000    0.02056787400000
F         2.36370158900000    0.56957164510000   -0.80889094240000
F         3.04276159140000   -1.13158978000000    0.35167187910000
H        -1.89734758740000   -3.84030488230000   -0.28438529820000
H        -0.43444041350000   -2.77686545640000   -0.55497644140000
H        -3.26557712940000   -1.90370336890000    0.22138709690000
H        -3.60644025090000    0.78762253500000   -0.26448983270000
H        -0.04740746520000    3.37561741430000    0.52707624900000
H         1.02874952930000    2.58318962980000   -0.63947196700000
H         1.13239996410000    2.16176307130000    1.08433312790000
H         0.63875218340000   -1.52377506510000    1.07763562740000
$end

$rem
BASIS = 6-31G*
GUI = 2
METHOD = B3LYP
PRINT_ORBITALS false
MOLDEN_FORMAT false
--------------------------------------------------------------

             Standard Nuclear Orientation (Angstroms)
    I     Atom           X                Y                Z
 ----------------------------------------------------------------
    1      C      -1.6476141228    -2.7188391775    -0.2600269255
    2      C      -2.2888593819    -1.5914280699     0.0249810213
    3      C      -1.7112426741    -0.2675424097     0.0381240523
    4      C      -2.4084211214     0.9436140941    -0.1208870892
    5      N      -1.5885836295     1.9731401160    -0.0835227428
    6      N      -0.3674887694     1.4848434367     0.0873805245
    7      C       0.7304866797     2.3941573489     0.2446390559
    8      C      -0.3740374639     0.1290314247     0.1704191949
    9      C       0.7685145248    -0.7065534491     0.4514446789
   10      C       2.0076581193    -0.5686823617     0.0048051314
   11      F       2.4658214061     0.3551105603    -0.8350238323
   12      F       3.0029771932    -1.3882991461     0.3371386990
   13      H      -2.1548647215    -3.6681210517    -0.2506229867
   14      H      -0.6076612528    -2.7365028555    -0.5377977453
   15      H      -3.3489846513    -1.6170408065     0.2447865788
   16      H      -3.4604075329     1.0894526292    -0.2631281812
   17      H       0.3119972895     3.3688736283     0.4880112810
   18      H       1.3095566506     2.4772491862    -0.6767941045
   19      H       1.3864381613     2.0629169387     1.0501296877
   20      H       0.5783380978    -1.5665596640     1.0783824782
 ----------------------------------------------------------------

    9    -618.7788908476      6.67e-06  Convergence criterion met
 Total energy in the final basis set =     -618.7788908476

                    Orbital Energies (a.u.)
 --------------------------------------------------------------

 Alpha MOs
 -- Occupied --
-24.7521 -24.7435 -14.4162 -14.3427 -10.3675 -10.2332 -10.2279 -10.2161
-10.1982 -10.1932 -10.1857 -10.1771  -1.2935  -1.2333  -1.0620  -0.8535
 -0.8361  -0.7876  -0.7510  -0.7038  -0.6559  -0.6207  -0.5919  -0.5861
 -0.5606  -0.5378  -0.5261  -0.4941  -0.4796  -0.4631  -0.4509  -0.4501
 -0.4402  -0.4382  -0.4255  -0.4081  -0.3962  -0.3938  -0.3605  -0.3088
 -0.3001  -0.2801  -0.2396  -0.2122

          Ground-State Mulliken Net Atomic Charges

     Atom                 Charge (a.u.)
  ----------------------------------------
      1 C                    -0.365463
      2 C                    -0.107661
      3 C                    -0.022799
      4 C                     0.012100
      5 N                    -0.291731
      6 N                    -0.307781
      7 C                    -0.325209
      8 C                     0.349662
      9 C                    -0.311897
     10 C                     0.559285
     11 F                    -0.235526
     12 F                    -0.244163
     13 H                     0.141219
     14 H                     0.144796
     15 H                     0.131472
     16 H                     0.142771
     17 H                     0.193678
     18 H                     0.181615
     19 H                     0.168422
     20 H                     0.187211
  ----------------------------------------
  Sum of atomic charges =     0.000000

                    Cartesian Multipole Moments
 -----------------------------------------------------------------
    Charge (ESU x 10^10)
                 0.0000
    Dipole Moment (Debye)
         X       0.8551      Y      -0.4784      Z       0.7255
       Tot       1.2192
    Quadrupole Moments (Debye-Ang)
        XX     -66.6657     XY       5.8860     YY     -66.7869
        XZ       0.2296     YZ       0.6742     ZZ     -68.9489

 Total job time:  25.03s(wall), 24.94s(cpu)
        *  Thank you very much for using Q-Chem.  Have a nice day.  *
