 Q-Chem 5.2, Q-Chem, Inc., Pleasanton, CA (2019)
 Q-Chem 5.2.1 for Intel X86 EM64T Linux

User input:
--------------------------------------------------------------
$molecule
0 1
C         2.45780816260000   -1.70412862330000    0.32624664270000
C         2.21709595270000   -0.54147871940000   -0.26661966380000
C         0.98892330150000    0.22883926760000   -0.16196136270000
C         1.00554125860000    1.64938313360000   -0.13156726880000
C        -0.22435530470000    2.19608080120000    0.01628667070000
S        -1.45874575530000    1.00409238300000    0.10080373730000
C        -0.29135459790000   -0.27882157500000   -0.05849375580000
C        -0.71762253360000   -1.64831284320000   -0.15774495120000
C        -1.93563468680000   -2.08844367100000    0.14516541810000
H         3.40224667070000   -2.20800462890000    0.20888425250000
H         1.73682679160000   -2.18094610230000    0.96821089000000
H         2.99636803080000   -0.06697162930000   -0.85132837200000
H         1.91098592880000    2.22659750890000   -0.20015218070000
H        -0.49033863250000    3.23256262980000    0.08114533120000
H         0.03516927210000   -2.33375613590000   -0.52514218240000
H        -2.69703140550000   -1.42467763680000    0.52092049000000
H        -2.20718838780000   -3.12292618270000    0.03128159900000
$end

$rem
BASIS = 6-31G*
GUI = 2
METHOD = B3LYP
PRINT_ORBITALS false
MOLDEN_FORMAT false
--------------------------------------------------------------

             Standard Nuclear Orientation (Angstroms)
    I     Atom           X                Y                Z
 ----------------------------------------------------------------
    1      C       2.9357662024    -0.0768919506     0.3592710927
    2      C       2.1043607261     0.7900760338    -0.2049266318
    3      C       0.6536821044     0.7563916753    -0.1203800593
    4      C      -0.1120802728     1.9509683027    -0.0446205994
    5      C      -1.4420847022     1.7275094388     0.0759573310
    6      S      -1.8212448307     0.0518210620     0.0782744627
    7      C      -0.1394838579    -0.3735326889    -0.0792064769
    8      C       0.2566877673    -1.7465733477    -0.2369051743
    9      C      -0.5240329979    -2.7951866865     0.0078571497
   10      H       4.0032429330     0.0246403399     0.2602070786
   11      H       2.5863320105    -0.8996631467     0.9594630994
   12      H       2.5030575285     1.6401907777    -0.7458998342
   13      H       0.3291189856     2.9321624499    -0.0622738100
   14      H      -2.2338630406     2.4448742058     0.1638391355
   15      H       1.2667635853    -1.8901371020    -0.5983536851
   16      H      -1.5295186199    -2.6748316759     0.3766599707
   17      H      -0.1821059073    -3.8029375022    -0.1483131485
 ----------------------------------------------------------------

    9    -707.7997874602      4.63e-06  Convergence criterion met
 Total energy in the final basis set =     -707.7997874602

                    Orbital Energies (a.u.)
 --------------------------------------------------------------

 Alpha MOs
 -- Occupied --
-88.9038 -10.2161 -10.2119 -10.1964 -10.1951 -10.1940 -10.1890 -10.1822
-10.1789  -7.9657  -5.9297  -5.9259  -5.9228  -0.8891  -0.7946  -0.7890
 -0.7228  -0.7066  -0.6200  -0.5876  -0.5582  -0.5193  -0.4966  -0.4595
 -0.4512  -0.4225  -0.4076  -0.3876  -0.3793  -0.3680  -0.3664  -0.3311
 -0.2970  -0.2938  -0.2374  -0.2069

          Ground-State Mulliken Net Atomic Charges

     Atom                 Charge (a.u.)
  ----------------------------------------
      1 C                    -0.345233
      2 C                    -0.117438
      3 C                     0.130620
      4 C                    -0.124783
      5 C                    -0.348334
      6 S                     0.253607
      7 C                    -0.211254
      8 C                    -0.054407
      9 C                    -0.376384
     10 H                     0.143633
     11 H                     0.155806
     12 H                     0.135051
     13 H                     0.139698
     14 H                     0.172197
     15 H                     0.148358
     16 H                     0.153747
     17 H                     0.145116
  ----------------------------------------
  Sum of atomic charges =     0.000000

                    Cartesian Multipole Moments
 -----------------------------------------------------------------
    Charge (ESU x 10^10)
                 0.0000
    Dipole Moment (Debye)
         X       0.5300      Y       0.6551      Z      -0.0637
       Tot       0.8451
    Quadrupole Moments (Debye-Ang)
        XX     -55.6414     XY      -1.4283     YY     -53.6196
        XZ      -1.2744     YZ      -0.8015     ZZ     -63.5862

 Total job time:  16.73s(wall), 16.66s(cpu)
        *  Thank you very much for using Q-Chem.  Have a nice day.  *
