 Q-Chem 5.2, Q-Chem, Inc., Pleasanton, CA (2019)
 Q-Chem 5.2.1 for Intel X86 EM64T Linux

User input:
--------------------------------------------------------------
$molecule
0 1
C        -4.40401472050000    1.50842512420000   -0.05018771830000
C        -3.09727310710000    1.70647145640000    0.07079615990000
C        -2.06285362700000    0.68107902200000    0.03313425000000
C        -2.32912442690000   -0.69160600760000   -0.01889786870000
N        -1.39040459790000   -1.61600340520000   -0.05799857210000
C        -0.12332241370000   -1.25074722170000   -0.04568247700000
C         0.28497286520000    0.08683260250000    0.01352514010000
C         1.67209731270000    0.52022211810000    0.03527917740000
C         2.76367565540000   -0.22987153990000    0.00522517430000
F         2.84395041110000   -1.55131803820000   -0.05180159120000
F         3.99295542070000    0.27827423030000    0.02963953470000
C        -0.72032293130000    1.05246540270000    0.05368316180000
H        -5.09815764060000    2.33020386820000   -0.01284122990000
H        -4.83415268940000    0.53253752010000   -0.19439437270000
H        -2.72468946500000    2.71533652900000    0.20341429570000
H        -3.34236114590000   -1.06744833850000   -0.02438540360000
H         0.58827287470000   -2.06189271460000   -0.08253181640000
H         1.84391808700000    1.58637412190000    0.08156678200000
H        -0.45518257160000    2.10061965660000    0.09847087630000
$end

$rem
BASIS = 6-31G*
GUI = 2
METHOD = B3LYP
PRINT_ORBITALS false
MOLDEN_FORMAT false
--------------------------------------------------------------

             Standard Nuclear Orientation (Angstroms)
    I     Atom           X                Y                Z
 ----------------------------------------------------------------
    1      C       4.4922906034     0.5641486486     0.0705437322
    2      C       3.2528258938     1.0274026725    -0.0321988380
    3      C       2.0319503962     0.2322445592    -0.0245621529
    4      C       2.0142988082    -1.1668827322    -0.0262694266
    5      N       0.9076184754    -1.8826669542    -0.0141897107
    6      C      -0.2590515945    -1.2680102595    -0.0023946735
    7      C      -0.3875957086     0.1258244656    -0.0080100544
    8      C      -1.6579981096     0.8318391992    -0.0021042357
    9      C      -2.8790111537     0.3179357439     0.0087309752
   10      F      -3.2256111905    -0.9610171707     0.0167803891
   11      F      -3.9796885186     1.0652132183     0.0134892126
   12      C       0.7926398334     0.8685059731    -0.0201448773
   13      H       5.3386648725     1.2290184873     0.0583719590
   14      H       4.7156181662    -0.4834632623     0.1744905030
   15      H       3.0925498466     2.0951740279    -0.1238001276
   16      H       2.9302494557    -1.7401923225    -0.0432029587
   17      H      -1.1203590530    -1.9189195776     0.0098225462
   18      H      -1.6100286468     1.9116635388    -0.0069356268
   19      H       0.7455795999     1.9495737369    -0.0233874286
 ----------------------------------------------------------------

    9    -601.5508515721      4.59e-06  Convergence criterion met
 Total energy in the final basis set =     -601.5508515721

                    Orbital Energies (a.u.)
 --------------------------------------------------------------

 Alpha MOs
 -- Occupied --
-24.7518 -24.7418 -14.3283 -10.3660 -10.2201 -10.2199 -10.2169 -10.2120
-10.2090 -10.2078 -10.2011 -10.1902  -1.2938  -1.2325  -0.9515  -0.8410
 -0.8230  -0.7693  -0.7413  -0.6660  -0.6399  -0.6308  -0.5871  -0.5745
 -0.5388  -0.5269  -0.5217  -0.4878  -0.4714  -0.4495  -0.4481  -0.4404
 -0.4294  -0.4191  -0.4120  -0.4074  -0.3753  -0.3681  -0.3289  -0.3205
 -0.2517  -0.2512  -0.2279

          Ground-State Mulliken Net Atomic Charges

     Atom                 Charge (a.u.)
  ----------------------------------------
      1 C                    -0.348166
      2 C                    -0.114637
      3 C                     0.157243
      4 C                    -0.013216
      5 N                    -0.404740
      6 C                    -0.021553
      7 C                     0.173210
      8 C                    -0.301904
      9 C                     0.552320
     10 F                    -0.228864
     11 F                    -0.244494
     12 C                    -0.226847
     13 H                     0.149735
     14 H                     0.151733
     15 H                     0.130323
     16 H                     0.139654
     17 H                     0.149931
     18 H                     0.162773
     19 H                     0.137497
  ----------------------------------------
  Sum of atomic charges =     0.000000

                    Cartesian Multipole Moments
 -----------------------------------------------------------------
    Charge (ESU x 10^10)
                 0.0000
    Dipole Moment (Debye)
         X       0.8633      Y       2.3936      Z       0.0000
       Tot       2.5446
    Quadrupole Moments (Debye-Ang)
        XX     -63.0340     XY       1.8967     YY     -67.3779
        XZ       0.1312     YZ      -0.2569     ZZ     -69.1183

 Total job time:  21.47s(wall), 21.39s(cpu)
        *  Thank you very much for using Q-Chem.  Have a nice day.  *
