 Q-Chem 5.2, Q-Chem, Inc., Pleasanton, CA (2019)
 Q-Chem 5.2.1 for Intel X86 EM64T Linux

User input:
--------------------------------------------------------------
$molecule
0 1
C        -6.12834324970000   -0.96442790120000    0.03594170070000
C        -4.83032710570000   -1.25984505530000    0.05606320190000
C        -3.76003993690000   -0.30100688410000    0.01484693520000
C        -3.80320196570000    1.07214946310000   -0.04884435850000
C        -2.54122787270000    1.67103543570000   -0.07218866960000
C        -1.50409267620000    0.76438545920000   -0.02698685930000
C        -0.10395685900000    1.03213799480000   -0.03515605240000
C         0.52125824750000    2.25967882740000   -0.07606530070000
C         1.91465740560000    2.16780750070000   -0.07303852510000
C         2.37877216770000    0.87317973790000   -0.03025207980000
C         3.75410848770000    0.47461820020000   -0.01833266500000
C         4.21112262580000   -0.77299037610000    0.02042977490000
F         3.48125797780000   -1.88122164890000    0.05569459450000
F         5.50406808600000   -1.08632367250000    0.02911871630000
S         1.05974311780000   -0.25751128360000    0.00783116040000
S        -2.11471705700000   -0.85976149080000    0.04598581120000
H        -6.87666281220000   -1.73607467640000    0.06978458550000
H        -6.48558548450000    0.04934878230000   -0.01470927530000
H        -4.51495343070000   -2.29389559160000    0.10721096150000
H        -4.72077289160000    1.63104595170000   -0.07791597460000
H        -2.38892869620000    2.73391975870000   -0.12154443150000
H        -0.01308209400000    3.19126373650000   -0.10634714180000
H         2.56971388380000    3.02028524620000   -0.10128409730000
H         4.49168491520000    1.26255049710000   -0.04381961750000
$end

$rem
BASIS = 6-31G*
GUI = 2
METHOD = B3LYP
PRINT_ORBITALS false
MOLDEN_FORMAT false
--------------------------------------------------------------

             Standard Nuclear Orientation (Angstroms)
    I     Atom           X                Y                Z
 ----------------------------------------------------------------
    1      C       6.0183526146     1.0515112268    -0.0054112830
    2      C       4.7181689865     1.3377486977     0.0052058353
    3      C       3.6550847787     0.3700659048     0.0001046234
    4      C       3.7085139364    -1.0041392462    -0.0134387751
    5      C       2.4510574219    -1.6129011475    -0.0136339776
    6      C       1.4071741857    -0.7129883455    -0.0005367519
    7      C       0.0090835573    -0.9913262137     0.0024779778
    8      C      -0.6069226527    -2.2241844462     0.0070517473
    9      C      -2.0009700354    -2.1426891631     0.0081145462
   10      C      -2.4747652414    -0.8508703420     0.0040558710
   11      C      -3.8530475778    -0.4624381658     0.0027867924
   12      C      -4.3193920943     0.7823002906    -0.0035831314
   13      F      -3.5978472152     1.8965085343    -0.0095449392
   14      F      -5.6146480621     1.0860617769    -0.0050503195
   15      S      -1.1642393999     0.2902919725    -0.0004987400
   16      S       2.0056342182     0.9172622757     0.0124617798
   17      H       6.7608791378     1.8294551158    -0.0005202519
   18      H       6.3831629864     0.0392615180    -0.0193618854
   19      H       4.3950740539     2.3705894881     0.0188706119
   20      H       4.6302358330    -1.5568455242    -0.0229972000
   21      H       2.3067107093    -2.6779884442    -0.0239873046
   22      H      -0.0656218206    -3.1522307997     0.0102779080
   23      H      -2.6496248965    -3.0005057500     0.0116758361
   24      H      -4.5847028751    -1.2562706752     0.0068301307
 ----------------------------------------------------------------

    9   -1458.0850271196      8.20e-06  Convergence criterion met
 Total energy in the final basis set =    -1458.0850271196

                    Orbital Energies (a.u.)
 --------------------------------------------------------------

 Alpha MOs
 -- Occupied --
-88.9105 -88.9090 -24.7482 -24.7393 -10.3601 -10.2305 -10.2281 -10.2277
-10.2205 -10.2141 -10.2002 -10.1958 -10.1945 -10.1943 -10.1923 -10.1836
 -7.9721  -7.9709  -5.9362  -5.9349  -5.9326  -5.9313  -5.9288  -5.9278
 -1.2890  -1.2295  -0.9050  -0.8845  -0.8180  -0.7950  -0.7568  -0.7434
 -0.7364  -0.6972  -0.6455  -0.6159  -0.6020  -0.5861  -0.5623  -0.5437
 -0.5293  -0.5228  -0.5136  -0.5087  -0.4785  -0.4481  -0.4450  -0.4424
 -0.4296  -0.4226  -0.4165  -0.4110  -0.4043  -0.3871  -0.3836  -0.3691
 -0.3632  -0.3576  -0.3368  -0.3239  -0.2902  -0.2639  -0.2539  -0.2376
 -0.1845

          Ground-State Mulliken Net Atomic Charges

     Atom                 Charge (a.u.)
  ----------------------------------------
      1 C                    -0.342147
      2 C                    -0.092264
      3 C                    -0.120202
      4 C                    -0.134007
      5 C                    -0.108977
      6 C                    -0.163553
      7 C                    -0.165890
      8 C                    -0.111717
      9 C                    -0.147101
     10 C                    -0.126759
     11 C                    -0.237518
     12 C                     0.536358
     13 F                    -0.228002
     14 F                    -0.245316
     15 S                     0.271443
     16 S                     0.255377
     17 H                     0.147902
     18 H                     0.142109
     19 H                     0.138928
     20 H                     0.140476
     21 H                     0.139763
     22 H                     0.140319
     23 H                     0.139300
     24 H                     0.171478
  ----------------------------------------
  Sum of atomic charges =     0.000000

                    Cartesian Multipole Moments
 -----------------------------------------------------------------
    Charge (ESU x 10^10)
                 0.0000
    Dipole Moment (Debye)
         X       0.4956      Y      -2.0677      Z      -0.0009
       Tot       2.1263
    Quadrupole Moments (Debye-Ang)
        XX     -93.4452     XY       4.3720     YY     -94.9470
        XZ      -0.0771     YZ       0.0607     ZZ    -108.7025

 Total job time:  40.95s(wall), 40.82s(cpu)
        *  Thank you very much for using Q-Chem.  Have a nice day.  *
