 Q-Chem 5.2, Q-Chem, Inc., Pleasanton, CA (2019)
 Q-Chem 5.2.1 for Intel X86 EM64T Linux

User input:
--------------------------------------------------------------
$molecule
0 1
C         4.17158173680000   -1.33212830900000    0.00272812110000
C         3.53448812720000   -0.16877553080000   -0.00164365950000
C         2.09432282800000   -0.02673570990000    0.00010180050000
C         1.08300279410000   -1.02482986500000    0.00518106480000
C        -0.08769827150000   -0.30879044510000    0.00336051280000
C        -1.45313880980000   -0.76261680670000    0.00553900180000
C        -2.51779822610000    0.03142497480000    0.00002770770000
F        -2.52350007390000    1.34882223750000   -0.00789015170000
F        -3.76336441170000   -0.42380822210000    0.00172888110000
O         0.20393792250000    1.00637787950000   -0.00207572730000
N         1.53902163620000    1.16593900980000   -0.00403073820000
H         5.24631998450000   -1.38297498500000    0.00076768850000
H         3.64918011050000   -2.27400534710000    0.00838946830000
H         4.07128101560000    0.76864366510000   -0.00720303030000
H         1.19721427280000   -2.08728585140000    0.00932525870000
H        -1.61446369770000   -1.82787899440000    0.01155937430000
$end

$rem
BASIS = 6-31G*
GUI = 2
METHOD = B3LYP
PRINT_ORBITALS false
MOLDEN_FORMAT false
--------------------------------------------------------------

             Standard Nuclear Orientation (Angstroms)
    I     Atom           X                Y                Z
 ----------------------------------------------------------------
    1      C       4.1723815801    -0.8273065689    -0.0020129516
    2      C       3.4103480572     0.2583276608    -0.0014691258
    3      C       1.9633120353     0.2399640692     0.0005248703
    4      C       1.0687705609    -0.8640202113     0.0009847167
    5      C      -0.1740394688    -0.2820588963     0.0019887538
    6      C      -1.4808090875    -0.8843413179     0.0018331024
    7      C      -2.6268707911    -0.2130965092    -0.0004855876
    8      F      -2.7784613923     1.0955846387    -0.0026521885
    9      F      -3.8143479772    -0.8034970875    -0.0010937551
   10      O      -0.0298742287     1.0573309580     0.0023707549
   11      N       1.2793198226     1.3637982485     0.0014570850
   12      H       5.2461380917    -0.7587875683    -0.0039180192
   13      H       3.7575232011    -1.8212675299    -0.0005993615
   14      H       3.8400029404     1.2494518608    -0.0027964922
   15      H       1.2999635541    -1.9072956985     0.0005189406
   16      H      -1.5231457067    -1.9609337861     0.0031601205
 ----------------------------------------------------------------

   10    -599.3069505491      2.77e-06  Convergence criterion met
 Total energy in the final basis set =     -599.3069505491

                    Orbital Energies (a.u.)
 --------------------------------------------------------------

 Alpha MOs
 -- Occupied --
-24.7542 -24.7511 -19.2427 -14.3765 -10.3775 -10.2704 -10.2287 -10.2241
-10.2036 -10.1993 -10.1950  -1.3013  -1.2403  -1.1662  -0.8839  -0.8409
 -0.7834  -0.7731  -0.6642  -0.6514  -0.6090  -0.5887  -0.5849  -0.5345
 -0.5325  -0.5020  -0.4831  -0.4710  -0.4577  -0.4535  -0.4422  -0.4321
 -0.4264  -0.3946  -0.3696  -0.3442  -0.3214  -0.2978  -0.2557  -0.2346

          Ground-State Mulliken Net Atomic Charges

     Atom                 Charge (a.u.)
  ----------------------------------------
      1 C                    -0.347879
      2 C                    -0.081135
      3 C                     0.299747
      4 C                    -0.301589
      5 C                     0.433704
      6 C                    -0.315887
      7 C                     0.580371
      8 F                    -0.214074
      9 F                    -0.237493
     10 O                    -0.376806
     11 N                    -0.221880
     12 H                     0.154687
     13 H                     0.144947
     14 H                     0.153775
     15 H                     0.148751
     16 H                     0.180761
  ----------------------------------------
  Sum of atomic charges =     0.000000

                    Cartesian Multipole Moments
 -----------------------------------------------------------------
    Charge (ESU x 10^10)
                 0.0000
    Dipole Moment (Debye)
         X       0.5409      Y      -3.2229      Z      -0.0013
       Tot       3.2680
    Quadrupole Moments (Debye-Ang)
        XX     -54.9474     XY      -1.5688     YY     -60.0260
        XZ      -0.0137     YZ      -0.0083     ZZ     -61.8174

 Total job time:  17.59s(wall), 17.52s(cpu)
        *  Thank you very much for using Q-Chem.  Have a nice day.  *
