 Q-Chem 5.2, Q-Chem, Inc., Pleasanton, CA (2019)
 Q-Chem 5.2.1 for Intel X86 EM64T Linux

User input:
--------------------------------------------------------------
$molecule
0 1
C        -3.46108731980000   -1.01988430590000   -0.21715724530000
C        -2.21277286490000   -1.02586402090000    0.23196583810000
C        -1.29687504950000    0.10642877510000    0.13018828560000
C        -1.76814913110000    1.42334532770000    0.11335058640000
N        -0.99481483430000    2.48261565730000   -0.01189987200000
C         0.30753685060000    2.30414039060000   -0.09844685140000
C         0.92614965920000    1.05133621220000   -0.05917317010000
C         2.38634396170000    0.98222212750000   -0.07976725980000
C         3.11628732440000    0.08415213570000    0.56858337530000
C         0.09206727050000   -0.07230996830000    0.03465300870000
C         0.65936276130000   -1.45872304350000   -0.04163414850000
O         0.50948911790000   -2.29968451220000    0.79805119090000
O         1.33613250810000   -1.72639327640000   -1.17571102750000
H        -4.09570046270000   -1.88249888140000   -0.11166308200000
H        -3.89158749710000   -0.16977833330000   -0.72017841250000
H        -1.80845082190000   -1.91308352230000    0.69774233660000
H        -2.82486591530000    1.62723420030000    0.21338902350000
H         0.90173817030000    3.20380963270000   -0.19076236780000
H         2.87072691240000    1.78506412710000   -0.62216130290000
H         2.67643615650000   -0.69772527840000    1.16457867030000
H         4.19190703040000    0.11141020180000    0.54010568580000
H         1.41687872680000   -0.95586046250000   -1.75302146710000
$end

$rem
BASIS = 6-31G*
GUI = 2
METHOD = B3LYP
PRINT_ORBITALS false
MOLDEN_FORMAT false
--------------------------------------------------------------

             Standard Nuclear Orientation (Angstroms)
    I     Atom           X                Y                Z
 ----------------------------------------------------------------
    1      C      -3.5078968373     0.8422055893     0.2037171132
    2      C      -2.2600011164     0.9153923496    -0.2406208743
    3      C      -1.2864118573    -0.1677813442    -0.1397588002
    4      C      -1.6881020458    -1.5076315344    -0.1298373636
    5      N      -0.8607898045    -2.5254463338    -0.0057618511
    6      C       0.4301028059    -2.2793589389     0.0864388756
    7      C       0.9823680919    -0.9957239822     0.0543937458
    8      C       2.4368524925    -0.8503103272     0.0808185801
    9      C       3.1210724032     0.0873980094    -0.5612497637
   10      C       0.0909057431     0.0830677356    -0.0382390359
   11      C       0.5845085896     1.4969674954     0.0455990128
   12      O       0.3938063236     2.3323460616    -0.7913747425
   13      O       1.2422379762     1.7950844989     1.1832779294
   14      H      -4.1864475247     1.6708211942     0.0991613415
   15      H      -3.8950763743    -0.0313280019     0.7017853145
   16      H      -1.9010420922     1.8244650561    -0.7014003638
   17      H      -2.7323186776    -1.7661769944    -0.2346924741
   18      H       1.0702862010    -3.1470408455     0.1775181693
   19      H       2.9606757504    -1.6288880703     0.6219279126
   20      H       2.6430108162     0.8475913491    -1.1558714397
   21      H       4.1965334790     0.1163979419    -0.5287811425
   22      H       1.3611630375     1.0274879087     1.7578912057
 ----------------------------------------------------------------

    9    -591.6314158783      6.09e-06  Convergence criterion met
 Total energy in the final basis set =     -591.6314158783

                    Orbital Energies (a.u.)
 --------------------------------------------------------------

 Alpha MOs
 -- Occupied --
-19.2024 -19.1468 -14.3408 -10.3327 -10.2333 -10.2316 -10.2309 -10.2251
-10.2228 -10.2120 -10.2017 -10.1993 -10.1936  -1.1144  -1.0340  -0.9647
 -0.8529  -0.8284  -0.7721  -0.7486  -0.6831  -0.6622  -0.6293  -0.6082
 -0.5669  -0.5601  -0.5283  -0.4872  -0.4756  -0.4723  -0.4592  -0.4512
 -0.4382  -0.4373  -0.4173  -0.4020  -0.3913  -0.3825  -0.3642  -0.3356
 -0.3245  -0.3184  -0.2895  -0.2704  -0.2566  -0.2436

          Ground-State Mulliken Net Atomic Charges

     Atom                 Charge (a.u.)
  ----------------------------------------
      1 C                    -0.337302
      2 C                    -0.138528
      3 C                     0.104620
      4 C                    -0.011735
      5 N                    -0.396937
      6 C                    -0.010044
      7 C                     0.095604
      8 C                    -0.171105
      9 C                    -0.330362
     10 C                    -0.036057
     11 C                     0.527928
     12 O                    -0.438656
     13 O                    -0.551984
     14 H                     0.155562
     15 H                     0.149862
     16 H                     0.183131
     17 H                     0.150505
     18 H                     0.147871
     19 H                     0.145863
     20 H                     0.184390
     21 H                     0.158370
     22 H                     0.419002
  ----------------------------------------
  Sum of atomic charges =     0.000000

                    Cartesian Multipole Moments
 -----------------------------------------------------------------
    Charge (ESU x 10^10)
                 0.0000
    Dipole Moment (Debye)
         X       0.7550      Y      -1.5064      Z       1.8113
       Tot       2.4739
    Quadrupole Moments (Debye-Ang)
        XX     -62.8698     XY      -6.5663     YY     -86.8129
        XZ       0.9731     YZ       0.0660     ZZ     -73.9726

 Total job time:  34.15s(wall), 33.49s(cpu)
        *  Thank you very much for using Q-Chem.  Have a nice day.  *
