 Q-Chem 5.2, Q-Chem, Inc., Pleasanton, CA (2019)
 Q-Chem 5.2.1 for Intel X86 EM64T Linux

User input:
--------------------------------------------------------------
$molecule
0 1
C        -3.87859662530000    1.28301070070000   -0.03943080970000
C        -3.34155399150000    0.07604503200000   -0.17348236580000
C        -1.92426946880000   -0.25675904950000   -0.11541411200000
C        -1.53684124490000   -1.59784705350000   -0.04957543130000
C        -0.20847741380000   -1.95279784350000    0.03076449480000
C         0.80514495440000   -0.99268458290000    0.04571720050000
C         2.20752130460000   -1.38507144960000    0.12036081840000
C         2.64777232200000   -2.48275144890000    0.72293294700000
C         0.42556829970000    0.35696958580000   -0.06198628650000
C         1.44781973450000    1.44385166570000   -0.04050980590000
O         2.42610445410000    1.44303437130000    0.65325171560000
O         1.20128476040000    2.47965107770000   -0.87104895770000
C        -0.91768867090000    0.70570906740000   -0.13421030560000
H        -4.94367889460000    1.42843675250000   -0.09075273780000
H        -3.29368458350000    2.16928565810000    0.13888469490000
H        -3.99447489800000   -0.77458146970000   -0.32589150700000
H        -2.29606504660000   -2.36699347100000   -0.05518945540000
H         0.06089889780000   -2.99719768230000    0.06712935180000
H         2.91774572990000   -0.70307042630000   -0.32448575080000
H         1.99008428630000   -3.16660490800000    1.23345923730000
H         3.69634928950000   -2.72223146460000    0.75102434230000
H         0.40393546130000    2.34239231740000   -1.40021709610000
H        -1.19438119060000    1.75049774430000   -0.17327228060000
$end

$rem
BASIS = 6-31G*
GUI = 2
METHOD = B3LYP
PRINT_ORBITALS false
MOLDEN_FORMAT false
--------------------------------------------------------------

             Standard Nuclear Orientation (Angstroms)
    I     Atom           X                Y                Z
 ----------------------------------------------------------------
    1      C       4.0127449485    -0.5073222154     0.3554684801
    2      C       3.2671062069     0.5427837123     0.0322794591
    3      C       1.8124232578     0.5889413606    -0.0354913775
    4      C       1.1709440511     1.8231805198    -0.1700667099
    5      C      -0.2028542669     1.9113552681    -0.2136376860
    6      C      -1.0112876467     0.7760679900    -0.1297948060
    7      C      -2.4641794506     0.8851234358    -0.1881974275
    8      C      -3.1547950179     1.9356513098     0.2375452571
    9      C      -0.3724007935    -0.4730372417    -0.0359621775
   10      C      -1.1655011631    -1.7325621917     0.0706239135
   11      O      -2.1794781199    -1.8458511873     0.7009913015
   12      O      -0.6574513643    -2.7887909689    -0.5999887692
   13      C       1.0141041822    -0.5512218664     0.0156705716
   14      H       5.0864919638    -0.4411266711     0.3849373487
   15      H       3.5959884724    -1.4654306937     0.6157452546
   16      H       3.7550794041     1.4829399176    -0.1937474648
   17      H       1.7664294016     2.7228212966    -0.2339586498
   18      H      -0.6695635099     2.8772669666    -0.3313411126
   19      H      -2.9914000357     0.0266876390    -0.5787854939
   20      H      -2.6847124437     2.7931296575     0.6898719704
   21      H      -4.2285245862     1.9614799079     0.1735830893
   22      H       0.1395563378    -2.5580279230    -1.0961257767
   23      H       1.4882650228    -1.5163633352     0.1311755942
 ----------------------------------------------------------------

    9    -575.6027461361      6.65e-06  Convergence criterion met
 Total energy in the final basis set =     -575.6027461361

                    Orbital Energies (a.u.)
 --------------------------------------------------------------

 Alpha MOs
 -- Occupied --
-19.1956 -19.1337 -10.3200 -10.2162 -10.2150 -10.2128 -10.2114 -10.2058
-10.2041 -10.2024 -10.1937 -10.1925 -10.1840  -1.1048  -1.0223  -0.8868
 -0.8229  -0.7820  -0.7750  -0.7284  -0.6576  -0.6522  -0.6164  -0.5884
 -0.5794  -0.5335  -0.5061  -0.4943  -0.4658  -0.4569  -0.4541  -0.4474
 -0.4334  -0.4172  -0.4087  -0.3977  -0.3831  -0.3689  -0.3614  -0.3563
 -0.3292  -0.3171  -0.2819  -0.2759  -0.2644  -0.2258

          Ground-State Mulliken Net Atomic Charges

     Atom                 Charge (a.u.)
  ----------------------------------------
      1 C                    -0.350511
      2 C                    -0.117492
      3 C                     0.182013
      4 C                    -0.187518
      5 C                    -0.189476
      6 C                     0.125719
      7 C                    -0.098163
      8 C                    -0.343297
      9 C                     0.004005
     10 C                     0.534716
     11 O                    -0.436543
     12 O                    -0.566320
     13 C                    -0.268684
     14 H                     0.151762
     15 H                     0.146768
     16 H                     0.133717
     17 H                     0.137781
     18 H                     0.140745
     19 H                     0.156717
     20 H                     0.143212
     21 H                     0.151070
     22 H                     0.413875
     23 H                     0.135902
  ----------------------------------------
  Sum of atomic charges =     0.000000

                    Cartesian Multipole Moments
 -----------------------------------------------------------------
    Charge (ESU x 10^10)
                 0.0000
    Dipole Moment (Debye)
         X       3.3659      Y       2.3324      Z      -1.7077
       Tot       4.4368
    Quadrupole Moments (Debye-Ang)
        XX     -72.5130     XY      -8.4641     YY     -73.7627
        XZ       2.3331     YZ       3.1042     ZZ     -77.4095

 Total job time:  31.80s(wall), 31.69s(cpu)
        *  Thank you very much for using Q-Chem.  Have a nice day.  *
