 Q-Chem 5.2, Q-Chem, Inc., Pleasanton, CA (2019)
 Q-Chem 5.2.1 for Intel X86 EM64T Linux

User input:
--------------------------------------------------------------
$molecule
0 1
C        -3.08698580000000   -2.01598311940000   -0.84912888000000
C        -1.95440787440000   -2.10182259240000   -0.16197830710000
C        -0.98944067140000   -1.01243833580000   -0.01357856160000
C         0.36796571790000   -1.32336772030000   -0.00353559470000
C         1.35035484460000   -0.34373897600000    0.01769958610000
C         2.76016615170000   -0.83270424620000    0.13827052540000
O         3.17472776950000   -1.78440674850000   -0.46037097370000
O         3.52836523080000   -0.19213508720000    1.03921560520000
C         0.98873291940000    1.01267751630000   -0.02915688920000
C         1.94982937780000    2.10351095440000   -0.19126902020000
C         3.06374514650000    2.02499276740000   -0.90908156400000
C        -0.36784616030000    1.32326612110000    0.02100830670000
C        -1.34950831270000    0.34332266460000    0.05800648180000
C        -2.75534696710000    0.83101749580000    0.22224779630000
O        -3.18474464590000    1.79090093680000   -0.35246258710000
O        -3.50009423620000    0.17889689190000    1.13446983250000
H        -3.73923417580000   -2.86393606090000   -0.96545270950000
H        -3.39729775290000   -1.10469216320000   -1.33397124960000
H        -1.64713802680000   -3.04975454380000    0.26156561030000
H         0.68085596050000   -2.35709237410000   -0.02268652370000
H         3.09288593550000    0.58658238500000    1.41152564090000
H         1.65417352390000    3.04688401760000    0.25036202190000
H         3.36078586360000    1.11899418130000   -1.41177970330000
H         3.71305470020000    2.87406583620000   -1.03339365500000
H        -0.68107337530000    2.35706840140000    0.02171438980000
H        -3.05576971330000   -0.60512964690000    1.48452850540000
$end

$rem
BASIS = 6-31G*
GUI = 2
METHOD = B3LYP
PRINT_ORBITALS false
MOLDEN_FORMAT false
--------------------------------------------------------------

             Standard Nuclear Orientation (Angstroms)
    I     Atom           X                Y                Z
 ----------------------------------------------------------------
    1      C       3.2144288299     1.7913428794    -0.8735416128
    2      C       2.1001993090     1.9548791841    -0.1706721126
    3      C       1.0603752733     0.9377193418    -0.0154494470
    4      C      -0.2704936152     1.3466310611     0.0147044322
    5      C      -1.3213483845     0.4410489249     0.0436363188
    6      C      -2.6900505414     1.0306007832     0.1860277527
    7      O      -3.0418858213     2.0139408178    -0.4015307079
    8      O      -3.4910860939     0.4417066547     1.0936105084
    9      C      -1.0602539747    -0.9377643579    -0.0158219624
   10      C      -2.1003794687    -1.9545829812    -0.1711383458
   11      C      -3.2148835549    -1.7903485992    -0.8733747754
   12      C       0.2706011641    -1.3466770231     0.0142389676
   13      C       1.3215145474    -0.4411159843     0.0435457914
   14      C       2.6900678131    -1.0310087024     0.1859969063
   15      O       3.0407755388    -2.0157721797    -0.3999174190
   16      O       3.4922418646    -0.4409641843     1.0917689957
   17      H       3.9252052233     2.5902850027    -0.9938402843
   18      H       3.4510957538     0.8631180170    -1.3677118368
   19      H       1.8684376327     2.9198336132     0.2623736920
   20      H      -0.5073859343     2.4005068034     0.0056672353
   21      H      -3.1087313845    -0.3691278524     1.4555637637
   22      H      -1.8685665565    -2.9199080970     0.2610806871
   23      H      -3.4516008467    -0.8617901480    -1.3668483524
   24      H      -3.9259540570    -2.5890189253    -0.9937322428
   25      H       0.5075829434    -2.4005318600     0.0048283062
   26      H       3.1108889348     0.3709974200     1.4522565348
 ----------------------------------------------------------------

    9    -764.1544680965      5.92e-06  Convergence criterion met
 Total energy in the final basis set =     -764.1544680965

                    Orbital Energies (a.u.)
 --------------------------------------------------------------

 Alpha MOs
 -- Occupied --
-19.1989 -19.1988 -19.1418 -19.1417 -10.3284 -10.3284 -10.2316 -10.2316
-10.2286 -10.2286 -10.2194 -10.2194 -10.2175 -10.2174 -10.2086 -10.2085
 -1.1110  -1.1109  -1.0297  -1.0296  -0.9035  -0.8425  -0.7983  -0.7966
 -0.7489  -0.6937  -0.6518  -0.6365  -0.6248  -0.6100  -0.6025  -0.5562
 -0.5357  -0.5229  -0.4869  -0.4849  -0.4615  -0.4598  -0.4524  -0.4492
 -0.4479  -0.4341  -0.4302  -0.4187  -0.4064  -0.3939  -0.3848  -0.3718
 -0.3640  -0.3427  -0.3244  -0.3200  -0.2974  -0.2973  -0.2797  -0.2688
 -0.2468

          Ground-State Mulliken Net Atomic Charges

     Atom                 Charge (a.u.)
  ----------------------------------------
      1 C                    -0.320828
      2 C                    -0.188055
      3 C                     0.125979
      4 C                    -0.231003
      5 C                     0.013694
      6 C                     0.517293
      7 O                    -0.438863
      8 O                    -0.559258
      9 C                     0.126082
     10 C                    -0.187788
     11 C                    -0.320936
     12 C                    -0.231102
     13 C                     0.013785
     14 C                     0.517431
     15 O                    -0.438907
     16 O                    -0.559345
     17 H                     0.163055
     18 H                     0.181213
     19 H                     0.150753
     20 H                     0.169745
     21 H                     0.416125
     22 H                     0.150720
     23 H                     0.181256
     24 H                     0.163027
     25 H                     0.169814
     26 H                     0.416115
  ----------------------------------------
  Sum of atomic charges =     0.000000

                    Cartesian Multipole Moments
 -----------------------------------------------------------------
    Charge (ESU x 10^10)
                -0.0000
    Dipole Moment (Debye)
         X       0.0014      Y       0.0048      Z       1.8913
       Tot       1.8913
    Quadrupole Moments (Debye-Ang)
        XX    -105.8496     XY      26.5063     YY     -91.3019
        XZ      -0.0140     YZ       0.0042     ZZ     -89.0334

 Total job time:  48.05s(wall), 47.90s(cpu)
        *  Thank you very much for using Q-Chem.  Have a nice day.  *
