 Q-Chem 5.2, Q-Chem, Inc., Pleasanton, CA (2019)
 Q-Chem 5.2.1 for Intel X86 EM64T Linux

User input:
--------------------------------------------------------------
$molecule
0 1
C        -6.45318513350000    0.56264803470000    0.07746542280000
C        -5.21145069720000    1.03505904380000    0.16337972080000
C        -4.01422695060000    0.25109336590000    0.02738567000000
C        -3.85835737190000   -1.09387840350000   -0.21300129030000
C        -2.52314466330000   -1.49988468190000   -0.28035800290000
C        -1.62763776070000   -0.46946689630000   -0.09199068250000
C        -0.20363834940000   -0.53412754840000   -0.09721909140000
C         0.59311824170000   -1.64250764700000   -0.28773760110000
C         1.96106231360000   -1.36323684380000   -0.23249462280000
C         2.23606336960000   -0.03631986200000    0.00110608710000
C         3.49188941160000    0.64378147270000    0.12605685660000
C         4.69671187260000    0.08977475280000    0.03761869740000
F         4.96965301460000   -1.19207550910000   -0.18198642230000
F         5.83259272210000    0.77027048440000    0.16185248240000
S         0.76774323270000    0.88278289050000    0.15524877910000
S        -2.46651184860000    1.02830782410000    0.17263712720000
H        -7.30503593720000    1.20935382610000    0.18993591810000
H        -6.66027112080000   -0.47711499680000   -0.10652630440000
H        -5.04861744990000    2.08862259500000    0.35023198960000
H        -4.68561907380000   -1.76857865250000   -0.33754437260000
H        -2.21923889630000   -2.51485416120000   -0.46128718330000
H         0.19648946930000   -2.62584169260000   -0.46152814280000
H         2.72329909170000   -2.10966011970000   -0.35967362780000
H         3.46404579130000    1.70701510880000    0.30974146340000
$end

$rem
BASIS = 6-31G*
GUI = 2
METHOD = B3LYP
PRINT_ORBITALS false
MOLDEN_FORMAT false
--------------------------------------------------------------

             Standard Nuclear Orientation (Angstroms)
    I     Atom           X                Y                Z
 ----------------------------------------------------------------
    1      C       6.3553353464     0.3482206629    -0.0055273577
    2      C       5.1322622862     0.8740930826    -0.0026418704
    3      C       3.9063550497     0.1233689803    -0.0001852011
    4      C       3.6999372725    -1.2361941224     0.0030003386
    5      C       2.3503751218    -1.5979280268     0.0042596563
    6      C       1.4943113345    -0.5179626710     0.0019584978
    7      C       0.0688833143    -0.5296932417     0.0018476059
    8      C      -0.7690464796    -1.6239940997    -0.0001781978
    9      C      -2.1255067477    -1.2888366847    -0.0001876764
   10      C      -2.3503476475     0.0677566281     0.0019808716
   11      C      -3.5796756526     0.8053213901     0.0026485460
   12      C      -4.8045002522     0.2894453162    -0.0016517865
   13      F      -5.1255086700    -1.0000442669    -0.0074466408
   14      F      -5.9139535990     1.0228252803    -0.0007147346
   15      S      -0.8484569974     0.9445656700     0.0040406539
   16      S       2.3890058068     0.9708547975    -0.0013690727
   17      H       7.2309428670     0.9725893337    -0.0072644141
   18      H       6.5231198529    -0.7146492931    -0.0062618258
   19      H       5.0092203789     1.9494001384    -0.0025077356
   20      H       4.5012016645    -1.9524803021     0.0046771445
   21      H       2.0084545498    -2.6169177489     0.0069792267
   22      H      -0.4097256473    -2.6365892050    -0.0019311547
   23      H      -2.9153112243    -2.0172141227    -0.0017070767
   24      H      -3.5118206450     1.8825213141     0.0067823572
 ----------------------------------------------------------------

    9   -1458.0836788085      8.24e-06  Convergence criterion met
 Total energy in the final basis set =    -1458.0836788085

                    Orbital Energies (a.u.)
 --------------------------------------------------------------

 Alpha MOs
 -- Occupied --
-88.9129 -88.9099 -24.7477 -24.7400 -10.3613 -10.2313 -10.2295 -10.2288
-10.2212 -10.2146 -10.2009 -10.1955 -10.1950 -10.1936 -10.1929 -10.1841
 -7.9747  -7.9718  -5.9387  -5.9358  -5.9352  -5.9323  -5.9315  -5.9288
 -1.2890  -1.2294  -0.9059  -0.8852  -0.8184  -0.7954  -0.7560  -0.7458
 -0.7380  -0.6953  -0.6468  -0.6162  -0.6012  -0.5844  -0.5734  -0.5399
 -0.5396  -0.5229  -0.5118  -0.4896  -0.4858  -0.4553  -0.4453  -0.4426
 -0.4306  -0.4229  -0.4144  -0.4120  -0.4014  -0.3876  -0.3844  -0.3688
 -0.3638  -0.3601  -0.3401  -0.3245  -0.2908  -0.2649  -0.2549  -0.2383
 -0.1850

          Ground-State Mulliken Net Atomic Charges

     Atom                 Charge (a.u.)
  ----------------------------------------
      1 C                    -0.341805
      2 C                    -0.092474
      3 C                    -0.119975
      4 C                    -0.133437
      5 C                    -0.109189
      6 C                    -0.164972
      7 C                    -0.160284
      8 C                    -0.110471
      9 C                    -0.144813
     10 C                    -0.107404
     11 C                    -0.269103
     12 C                     0.554975
     13 F                    -0.236502
     14 F                    -0.243661
     15 S                     0.255322
     16 S                     0.251212
     17 H                     0.147912
     18 H                     0.142297
     19 H                     0.138514
     20 H                     0.140788
     21 H                     0.140423
     22 H                     0.141641
     23 H                     0.149090
     24 H                     0.171916
  ----------------------------------------
  Sum of atomic charges =     0.000000

                    Cartesian Multipole Moments
 -----------------------------------------------------------------
    Charge (ESU x 10^10)
                 0.0000
    Dipole Moment (Debye)
         X       0.8833      Y      -0.8280      Z       0.0027
       Tot       1.2107
    Quadrupole Moments (Debye-Ang)
        XX     -98.7976     XY      -2.0225     YY     -94.9980
        XZ      -0.0160     YZ      -0.0022     ZZ    -108.7015

 Total job time:  41.11s(wall), 40.39s(cpu)
        *  Thank you very much for using Q-Chem.  Have a nice day.  *
