 Q-Chem 5.2, Q-Chem, Inc., Pleasanton, CA (2019)
 Q-Chem 5.2.1 for Intel X86 EM64T Linux

User input:
--------------------------------------------------------------
$molecule
0 1
C        -3.09620425290000    2.63280788870000    1.68234837520000
C        -2.54809264410000    2.62959756890000    0.25587771890000
C        -1.57763148370000    3.79319049680000    0.04961231470000
O        -1.72843600360000    1.45633208780000    0.03375300240000
C        -2.24868708080000    0.22942549530000    0.14440922390000
N        -1.27589045840000   -0.72233117980000   -0.07914843720000
C         0.09220873820000   -0.38518871810000   -0.14910398530000
C         0.69494328650000    0.40391932530000    0.82632644460000
C         2.03472371280000    0.71992500770000    0.74272423340000
C         2.81629251840000    0.24562566250000   -0.31331396980000
C         4.23105976390000    0.53985055860000   -0.46242422830000
C         5.00524901820000    1.28782419390000    0.31056223670000
F         4.66955271080000    1.94869411750000    1.41249476160000
F         6.29995065290000    1.48678213480000    0.06776849040000
C         2.20521141330000   -0.56091106190000   -1.27727464950000
C         0.86517708280000   -0.87275864420000   -1.19991353580000
C        -1.63077945170000   -2.08128287710000   -0.25452719910000
C        -2.75385662050000   -2.44499391370000   -0.98765034360000
C        -3.07057255740000   -3.78254285270000   -1.14249674470000
C        -2.26944121790000   -4.76397995620000   -0.58459633030000
C        -1.14565642250000   -4.40165177010000    0.13916193410000
C        -0.82694057320000   -3.06783061030000    0.30939265660000
O        -3.39830300490000   -0.03974613310000    0.38682461630000
C        -3.68089760440000    2.68646634070000   -0.76818501980000
H        -2.27985953670000    2.56612557960000    2.39873697340000
H        -3.76564403430000    1.78990300280000    1.83085771170000
H        -3.64407813170000    3.55378468080000    1.86018244780000
H        -0.75581672980000    3.72396851500000    0.75735382190000
H        -2.09356475060000    4.73756287300000    0.19382884010000
H        -1.16662303080000    3.76066230410000   -0.95584999640000
H         0.10811650600000    0.76678844790000    1.65543797820000
H         2.47411343670000    1.33148230930000    1.51336540210000
H         4.72740115620000    0.09813776150000   -1.31460302700000
H         2.79153969410000   -0.94090827100000   -2.10088616760000
H         0.40530409610000   -1.49601854190000   -1.95236815100000
H        -3.37980011990000   -1.68453148570000   -1.42520643030000
H        -3.94657247880000   -4.05803944980000   -1.71044190870000
H        -2.51934577450000   -5.80645441310000   -0.71194356540000
H        -0.51666200780000   -5.16032449520000    0.58075894720000
H         0.04490999480000   -2.78358942660000    0.88035378690000
H        -4.22595726040000    3.61969699200000   -0.65848642520000
H        -4.36640989830000    1.85717109720000   -0.61726241290000
H        -3.27509160040000    2.63099264070000   -1.77625793320000
$end

$rem
BASIS = 6-31G*
GUI = 2
METHOD = B3LYP
PRINT_ORBITALS false
MOLDEN_FORMAT false
--------------------------------------------------------------

             Standard Nuclear Orientation (Angstroms)
    I     Atom           X                Y                Z
 ----------------------------------------------------------------
    1      C       1.9035457297     3.6537051359    -1.3025676679
    2      C       1.4743058042     3.2706420418     0.1131550900
    3      C       0.2014037056     4.0189931714     0.5106215877
    4      O       1.0816974686     1.8773350038     0.1609303972
    5      C       1.9541603322     0.9115172791    -0.1460068010
    6      N       1.3468069575    -0.3237711325    -0.0603535264
    7      C      -0.0506734280    -0.4572828320     0.0792080302
    8      C      -0.9308839922     0.2276016034    -0.7536230669
    9      C      -2.2940355530     0.0814384905    -0.6042420834
   10      C      -2.8189486147    -0.7645923486     0.3754131878
   11      C      -4.2421693598    -0.9645904186     0.5871016384
   12      C      -5.2591788683    -0.4022196906    -0.0499010773
   13      F      -5.2181615207     0.4819300518    -1.0399986312
   14      F      -6.5328412125    -0.6662744072     0.2379265239
   15      C      -1.9260550719    -1.4614733333     1.1940949400
   16      C      -0.5635850083    -1.3122289354     1.0515218053
   17      C       2.1220964258    -1.5072201559    -0.1031118282
   18      C       3.3459124847    -1.5921479062     0.5496661751
   19      C       4.0770286888    -2.7648742563     0.4904584007
   20      C       3.5929450498    -3.8610243801    -0.2026512733
   21      C       2.3694777174    -3.7789584859    -0.8463848220
   22      C       1.6366847127    -2.6081626302    -0.8029261702
   23      O       3.1125799965     1.0632127574    -0.4424654391
   24      C       2.5928947072     3.5409562426     1.1185777509
   25      H       1.1068897680     3.4317551168    -2.0097842664
   26      H       2.7939088034     3.1006982116    -1.5891513891
   27      H       2.1210476269     4.7172407354    -1.3422406996
   28      H      -0.5990935955     3.7916723200    -0.1883766348
   29      H       0.3833774943     5.0893690247     0.5082132841
   30      H      -0.1149707573     3.7127349376     1.5041272918
   31      H      -0.5411438382     0.8743287181    -1.5238907198
   32      H      -2.9508526799     0.6232243539    -1.2645547470
   33      H      -4.5199356785    -1.6593883826     1.3667011119
   34      H      -2.3102673871    -2.1232889248     1.9562600693
   35      H       0.1151856497    -1.8557936808     1.6917809508
   36      H       3.7262458252    -0.7418886060     1.0918555981
   37      H       5.0287790034    -2.8228861413     0.9970567687
   38      H       4.1660822713    -4.7750088605    -0.2422580132
   39      H       1.9854395596    -4.6279432994    -1.3922471484
   40      H       0.6859200582    -2.5402005096    -1.3111985358
   41      H       2.8081113968     4.6053108065     1.1481479673
   42      H       3.4940388133     3.0061951781     0.8315146164
   43      H       2.2888410683     3.2145124885     2.1110255848
 ----------------------------------------------------------------

    9   -1140.3438157934      6.28e-06  Convergence criterion met
 Total energy in the final basis set =    -1140.3438157934

                    Orbital Energies (a.u.)
 --------------------------------------------------------------

 Alpha MOs
 -- Occupied --
-24.7457 -24.7350 -19.1836 -19.1204 -14.3767 -10.3574 -10.3346 -10.2549
-10.2307 -10.2271 -10.2074 -10.2045 -10.1942 -10.1923 -10.1922 -10.1914
-10.1862 -10.1854 -10.1850 -10.1831 -10.1826 -10.1767 -10.1713 -10.1701
 -1.2865  -1.2255  -1.1117  -1.0197  -0.9676  -0.8692  -0.8518  -0.8134
 -0.8056  -0.7591  -0.7513  -0.7472  -0.7325  -0.6967  -0.6935  -0.6626
 -0.6483  -0.6219  -0.6202  -0.6058  -0.5897  -0.5740  -0.5567  -0.5366
 -0.5311  -0.5201  -0.5092  -0.4952  -0.4862  -0.4693  -0.4645  -0.4609
 -0.4540  -0.4503  -0.4421  -0.4418  -0.4384  -0.4339  -0.4312  -0.4226
 -0.4205  -0.4155  -0.4109  -0.3963  -0.3904  -0.3831  -0.3795  -0.3728
 -0.3682  -0.3591  -0.3575  -0.3538  -0.3478  -0.3465  -0.3335  -0.3171
 -0.2936  -0.2865  -0.2704  -0.2599  -0.2477  -0.2390  -0.2023

          Ground-State Mulliken Net Atomic Charges

     Atom                 Charge (a.u.)
  ----------------------------------------
      1 C                    -0.470624
      2 C                     0.308064
      3 C                    -0.449751
      4 O                    -0.508744
      5 C                     0.792462
      6 N                    -0.647580
      7 C                     0.285596
      8 C                    -0.131847
      9 C                    -0.215521
     10 C                     0.204850
     11 C                    -0.299929
     12 C                     0.542068
     13 F                    -0.235276
     14 F                    -0.248367
     15 C                    -0.208774
     16 C                    -0.148386
     17 C                     0.294332
     18 C                    -0.134133
     19 C                    -0.145598
     20 C                    -0.122376
     21 C                    -0.140338
     22 C                    -0.155078
     23 O                    -0.510031
     24 C                    -0.468414
     25 H                     0.143338
     26 H                     0.190779
     27 H                     0.144832
     28 H                     0.152934
     29 H                     0.147182
     30 H                     0.156638
     31 H                     0.139189
     32 H                     0.140403
     33 H                     0.159635
     34 H                     0.131629
     35 H                     0.148289
     36 H                     0.148500
     37 H                     0.131193
     38 H                     0.126357
     39 H                     0.130210
     40 H                     0.144312
     41 H                     0.143175
     42 H                     0.188260
     43 H                     0.146538
  ----------------------------------------
  Sum of atomic charges =     0.000000

                    Cartesian Multipole Moments
 -----------------------------------------------------------------
    Charge (ESU x 10^10)
                 0.0000
    Dipole Moment (Debye)
         X      -0.7452      Y       0.0179      Z       1.0080
       Tot       1.2536
    Quadrupole Moments (Debye-Ang)
        XX    -147.2278     XY      -0.3086     YY    -123.3256
        XZ       2.9637     YZ      -1.4490     ZZ    -134.8956

 Total job time:  134.82s(wall), 134.47s(cpu)
        *  Thank you very much for using Q-Chem.  Have a nice day.  *
