 Q-Chem 5.2, Q-Chem, Inc., Pleasanton, CA (2019)
 Q-Chem 5.2.1 for Intel X86 EM64T Linux

User input:
--------------------------------------------------------------
$molecule
0 1
C        -3.89116097640000   -2.11952877940000   -0.04802764340000
C        -2.57793123220000   -1.94125922790000    0.02751797900000
C        -1.86946717630000   -0.66579742470000    0.01749990120000
C        -2.52610756630000    0.56672494440000    0.01199774030000
C        -1.80754647940000    1.74557106610000    0.00130074140000
C        -0.42770905480000    1.69817169330000   -0.00436474870000
F         0.25608236750000    2.86222701150000   -0.01520161820000
C         0.27772025870000    0.49090744780000    0.00273195540000
C         1.73090535230000    0.53444105560000   -0.00275870630000
C         2.57915871100000   -0.48261477190000    0.00022987860000
F         2.29801130690000   -1.78025755360000    0.00964712190000
F         3.89946015800000   -0.32826866590000   -0.00615047480000
C        -0.47572918920000   -0.68102960570000    0.01546530740000
H        -4.32037883520000   -3.10635721410000   -0.03524098410000
H        -4.59018243040000   -1.30496980240000   -0.12848332340000
H        -1.93446881390000   -2.80918241750000    0.09812154550000
H        -3.60299346720000    0.60847235440000    0.02020112100000
H        -2.30158062930000    2.70448436820000   -0.00205820670000
H         2.18190743820000    1.51636975460000   -0.01089307120000
H         0.02863298300000   -1.63376728600000    0.02167204690000
$end

$rem
BASIS = 6-31G*
GUI = 2
METHOD = B3LYP
PRINT_ORBITALS false
MOLDEN_FORMAT false
--------------------------------------------------------------

             Standard Nuclear Orientation (Angstroms)
    I     Atom           X                Y                Z
 ----------------------------------------------------------------
    1      C       3.9952381010     1.6486485459    -0.0467277862
    2      C       2.6701538849     1.6217167796     0.0273399891
    3      C       1.8206386325     0.4355144948     0.0188272108
    4      C       2.3321906801    -0.8639577070     0.0166443004
    5      C       1.4836820714    -1.9530249808     0.0072499347
    6      C       0.1182993311    -1.7483272434    -0.0004263614
    7      F      -0.6939774698    -2.8266726419    -0.0099411371
    8      C      -0.4446094095    -0.4683712058     0.0033325738
    9      C      -1.8932474576    -0.3456320500    -0.0040933278
   10      C      -2.6197686942     0.7616674172    -0.0042696970
   11      F      -2.1922380251     2.0187171154     0.0030048777
   12      F      -3.9490505698     0.7591383399    -0.0121842012
   13      C       0.4377675454     0.6098511708     0.0148252784
   14      H       4.5343604039     2.5800119100    -0.0352711250
   15      H       4.5967261407     0.7594043695    -0.1246211070
   16      H       2.1299685589     2.5576084830     0.0953542766
   17      H       3.3972479638    -1.0284286182     0.0264262751
   18      H       1.8649453745    -2.9621004975     0.0064499818
   19      H      -2.4534570427    -1.2696295589    -0.0109375591
   20      H       0.0455350720     1.6139772632     0.0184707135
 ----------------------------------------------------------------

    9    -684.7500358837      4.49e-06  Convergence criterion met
 Total energy in the final basis set =     -684.7500358837

                    Orbital Energies (a.u.)
 --------------------------------------------------------------

 Alpha MOs
 -- Occupied --
-24.7486 -24.7382 -24.7143 -10.3614 -10.2758 -10.2160 -10.2070 -10.2017
-10.1996 -10.1988 -10.1976 -10.1945 -10.1833  -1.2901  -1.2290  -1.2255
 -0.8801  -0.8205  -0.7930  -0.7517  -0.7311  -0.6570  -0.6305  -0.6271
 -0.5833  -0.5679  -0.5462  -0.5234  -0.5208  -0.5085  -0.4795  -0.4677
 -0.4486  -0.4467  -0.4450  -0.4394  -0.4345  -0.4164  -0.4025  -0.3865
 -0.3812  -0.3583  -0.3475  -0.3210  -0.2900  -0.2395  -0.2190

          Ground-State Mulliken Net Atomic Charges

     Atom                 Charge (a.u.)
  ----------------------------------------
      1 C                    -0.355943
      2 C                    -0.110604
      3 C                     0.187711
      4 C                    -0.183856
      5 C                    -0.195907
      6 C                     0.308842
      7 F                    -0.290781
      8 C                     0.123284
      9 C                    -0.297917
     10 C                     0.552300
     11 F                    -0.234257
     12 F                    -0.244227
     13 C                    -0.283423
     14 H                     0.146613
     15 H                     0.142598
     16 H                     0.130567
     17 H                     0.135821
     18 H                     0.147394
     19 H                     0.176301
     20 H                     0.145483
  ----------------------------------------
  Sum of atomic charges =     0.000000

                    Cartesian Multipole Moments
 -----------------------------------------------------------------
    Charge (ESU x 10^10)
                -0.0000
    Dipole Moment (Debye)
         X       1.2853      Y       0.0720      Z       0.0098
       Tot       1.2873
    Quadrupole Moments (Debye-Ang)
        XX     -68.2439     XY      -0.4583     YY     -69.8335
        XZ      -0.1158     YZ       0.1158     ZZ     -74.2556

 Total job time:  25.95s(wall), 25.86s(cpu)
        *  Thank you very much for using Q-Chem.  Have a nice day.  *
