 Q-Chem 5.2, Q-Chem, Inc., Pleasanton, CA (2019)
 Q-Chem 5.2.1 for Intel X86 EM64T Linux

User input:
--------------------------------------------------------------
$molecule
0 1
C         3.55073260150000   -0.03762137640000    0.00096908100000
C         2.38739024370000   -0.68292453800000   -0.00039598320000
C         1.09421702200000   -0.05325686390000   -0.00002854880000
C         0.70136198280000    1.26835510920000   -0.00057128150000
C        -0.70136788860000    1.26835533210000   -0.00016731490000
C        -1.09422033930000   -0.05325807140000    0.00047273860000
C        -2.38739141640000   -0.68292554140000    0.00119083420000
C        -3.55072471560000   -0.03761015790000   -0.00206854550000
O        -0.00000175320000   -0.84701464750000    0.00066535620000
H         4.48580719450000   -0.56867588520000    0.00008066710000
H         3.60519989820000    1.03698392420000    0.00280924320000
H         2.35680822120000   -1.76438482520000   -0.00206764880000
H         1.34322825310000    2.12527356000000   -0.00119319740000
H        -1.34323252120000    2.12527442620000   -0.00013074650000
H        -2.35680308050000   -1.76437200600000    0.00461495550000
H        -3.60516088630000    1.03697494790000   -0.00596876500000
H        -4.48578933790000   -0.56869613660000   -0.00156793210000
$end

$rem
BASIS = 6-31G*
GUI = 2
METHOD = B3LYP
PRINT_ORBITALS false
MOLDEN_FORMAT false
--------------------------------------------------------------

             Standard Nuclear Orientation (Angstroms)
    I     Atom           X                Y                Z
 ----------------------------------------------------------------
    1      C       3.5507323039     0.0503843655    -0.0003205555
    2      C       2.3873900643     0.6956875411     0.0011356286
    3      C       1.0942165912     0.0660209218     0.0002339088
    4      C       0.7013607442    -1.2555909137     0.0000809877
    5      C      -0.7013690295    -1.2555900659    -0.0005802499
    6      C      -1.0942206414     0.0660237389    -0.0006687535
    7      C      -2.3873912244     0.6956922890    -0.0013269181
    8      C      -3.5507254509     0.0503761693     0.0014146059
    9      O      -0.0000016090     0.8597796310    -0.0002861501
   10      H       4.4858070054     0.5814378093     0.0009899353
   11      H       3.6051993559    -1.0242199813    -0.0026577791
   12      H       2.3568083207     1.7771469383     0.0033119708
   13      H       1.3432264262    -2.1125099653     0.0004162905
   14      H      -1.3432341081    -2.1125086447    -0.0011388773
   15      H      -2.3568016761     1.7771402297    -0.0042351495
   16      H      -3.6051629172    -1.0242106230     0.0047977991
   17      H      -4.4857896784     0.5814629118     0.0009930872
 ----------------------------------------------------------------

    9    -384.8293461340      1.90e-06  Convergence criterion met
 Total energy in the final basis set =     -384.8293461340

                    Orbital Energies (a.u.)
 --------------------------------------------------------------

 Alpha MOs
 -- Occupied --
-19.2166 -10.2395 -10.2395 -10.1965 -10.1965 -10.1850 -10.1845 -10.1821
-10.1821  -1.1207  -0.8150  -0.8076  -0.7749  -0.7145  -0.6224  -0.6177
 -0.5568  -0.5565  -0.5119  -0.4788  -0.4611  -0.4389  -0.4265  -0.4104
 -0.4084  -0.3871  -0.3590  -0.3564  -0.3197  -0.2926  -0.2680  -0.1916

          Ground-State Mulliken Net Atomic Charges

     Atom                 Charge (a.u.)
  ----------------------------------------
      1 C                    -0.347551
      2 C                    -0.125719
      3 C                     0.344531
      4 C                    -0.202378
      5 C                    -0.202379
      6 C                     0.344530
      7 C                    -0.125718
      8 C                    -0.347548
      9 O                    -0.484875
     10 H                     0.147496
     11 H                     0.141697
     12 H                     0.143403
     13 H                     0.140956
     14 H                     0.140956
     15 H                     0.143404
     16 H                     0.141700
     17 H                     0.147494
  ----------------------------------------
  Sum of atomic charges =     0.000000

                    Cartesian Multipole Moments
 -----------------------------------------------------------------
    Charge (ESU x 10^10)
                 0.0000
    Dipole Moment (Debye)
         X      -0.0000      Y      -0.5721      Z       0.0006
       Tot       0.5721
    Quadrupole Moments (Debye-Ang)
        XX     -46.1957     XY      -0.0001     YY     -47.6420
        XZ       0.0011     YZ      -0.0012     ZZ     -56.4533

 Total job time:  15.80s(wall), 15.68s(cpu)
        *  Thank you very much for using Q-Chem.  Have a nice day.  *
