 Q-Chem 5.2, Q-Chem, Inc., Pleasanton, CA (2019)
 Q-Chem 5.2.1 for Intel X86 EM64T Linux

User input:
--------------------------------------------------------------
$molecule
0 1
F        -5.81286621610000   -1.08432265760000   -1.29675329700000
C        -4.95925989670000   -0.34158868000000   -0.59534449240000
F        -5.64714213830000    0.52306404510000    0.13927256760000
C        -3.64504893170000   -0.49273207090000   -0.66453978960000
C        -2.61029122200000    0.24510854550000    0.04393939110000
C        -1.28338946750000   -0.11114440070000   -0.19492578210000
C        -0.24147904800000    0.54299293000000    0.44981773680000
N         1.08256468110000    0.16170178550000    0.20400965310000
C         1.57197184960000   -1.13027543680000    0.24314831150000
C         2.95217933700000   -1.11591260350000   -0.06138653820000
C         3.67500733410000   -2.30154496920000   -0.06750732780000
C         3.01942248580000   -3.47751229200000    0.23745791040000
C         1.66474631210000   -3.47860974190000    0.56179290960000
C         0.92447764830000   -2.31175701100000    0.57426512320000
C         2.12259661030000    1.01146345520000   -0.12238300120000
C         3.30393235690000    0.25603736150000   -0.30038746710000
C         4.48786198350000    0.89005755380000   -0.65331257380000
C         4.47719513540000    2.25884068930000   -0.83209200430000
C         3.30259955100000    2.99179461520000   -0.67876072150000
C         2.11241296580000    2.38337391530000   -0.32809951000000
C        -0.52347639660000    1.57650722120000    1.34017107390000
C        -1.83756226730000    1.94173309890000    1.56831073470000
C        -2.87733955130000    1.28640752080000    0.93482346780000
H        -3.30869353190000   -1.26917288600000   -1.33665115800000
H        -1.05587347990000   -0.89666119850000   -0.90024053850000
H         4.72876193350000   -2.29760692840000   -0.30183349120000
H         3.56219229250000   -4.41095494340000    0.23595670040000
H         1.18247712830000   -4.41171956610000    0.81318403690000
H        -0.12009630710000   -2.32174657470000    0.84743452560000
H         5.39401799010000    0.31909010390000   -0.78839235180000
H         5.38745088140000    2.77195479450000   -1.10441502290000
H         3.32113799040000    4.05935960470000   -0.84127451690000
H         1.20401535670000    2.95865921320000   -0.23060633890000
H         0.28378385680000    2.07329596250000    1.85603870460000
H        -2.05542807460000    2.74300636860000    2.25827102630000
H        -3.89136146150000    1.58771996050000    1.13646691600000
$end

$rem
BASIS = 6-31G*
GUI = 2
METHOD = B3LYP
PRINT_ORBITALS false
MOLDEN_FORMAT false
--------------------------------------------------------------

             Standard Nuclear Orientation (Angstroms)
    I     Atom           X                Y                Z
 ----------------------------------------------------------------
    1      F       5.8819879620    -1.1057082239     1.3469317519
    2      C       5.0354793805    -0.3608405284     0.6392120624
    3      F       5.7310091189     0.5013354891    -0.0911025520
    4      C       3.7203757649    -0.5080294342     0.6993841526
    5      C       2.6927553287     0.2324803252    -0.0166581490
    6      C       1.3631743509    -0.1196814336     0.2132059803
    7      C       0.3277103104     0.5371835265    -0.4391051570
    8      N      -0.9991354807     0.1599791819    -0.2022645430
    9      C      -1.4921103194    -1.1305571955    -0.2440738870
   10      C      -2.8743452213    -1.1119082144     0.0508826615
   11      C      -3.6007306378    -2.2953789444     0.0526551794
   12      C      -2.9465587123    -3.4734693278    -0.2471056826
   13      C      -1.5896776860    -3.4787883843    -0.5620461846
   14      C      -0.8458641040    -2.3141528097    -0.5700386778
   15      C      -2.0388647318     1.0130227027     0.1164411361
   16      C      -3.2236526041     0.2612209847     0.2866768357
   17      C      -4.4081025941     0.8989678803     0.6310374233
   18      C      -4.3945927082     2.2678161749     0.8091243904
   19      C      -3.2167827285     2.9971801471     0.6635270888
   20      C      -2.0260153015     2.3850152995     0.3214594417
   21      C       0.6189490224     1.5693391754    -1.3280585241
   22      C       1.9356669433     1.9305181839    -1.5472911922
   23      C       2.9690723369     1.2724648354    -0.9062501531
   24      H       3.3770588944    -1.2830769156     1.3695810743
   25      H       1.1284367348    -0.9041098184     0.9173646489
   26      H      -4.6560666908    -2.2881674508     0.2796724130
   27      H      -3.4921070252    -4.4052904006    -0.2488454791
   28      H      -1.1084633956    -4.4134753044    -0.8095702777
   29      H       0.2005425852    -2.3274108850    -0.8359584523
   30      H      -5.3168711563     0.3307796636     0.7601533960
   31      H      -5.3051788185     2.7837959763     1.0748483352
   32      H      -3.2332628663     4.0648892661     0.8253141602
   33      H      -1.1152526849     2.9575363704     0.2299422953
   34      H      -0.1832334568     2.0682318714    -1.8497834807
   35      H       2.1606952802     2.7307405726    -2.2361714017
   36      H       3.9853607018     1.5706396157    -1.1010306982
 ----------------------------------------------------------------

    9   -1024.3864925450      4.74e-06  Convergence criterion met
 Total energy in the final basis set =    -1024.3864925450

                    Orbital Energies (a.u.)
 --------------------------------------------------------------

 Alpha MOs
 -- Occupied --
-24.7511 -24.7403 -14.3830 -10.3643 -10.2396 -10.2209 -10.2208 -10.2169
-10.2098 -10.1997 -10.1996 -10.1975 -10.1949 -10.1848 -10.1846 -10.1845
-10.1844 -10.1837 -10.1834 -10.1834 -10.1832 -10.1775 -10.1773  -1.2924
 -1.2310  -1.0024  -0.8827  -0.8511  -0.8479  -0.8150  -0.7879  -0.7609
 -0.7547  -0.7475  -0.7177  -0.7171  -0.6564  -0.6510  -0.6247  -0.6197
 -0.6030  -0.5873  -0.5788  -0.5738  -0.5480  -0.5257  -0.5186  -0.5172
 -0.5084  -0.4922  -0.4791  -0.4612  -0.4546  -0.4528  -0.4471  -0.4434
 -0.4395  -0.4356  -0.4300  -0.4215  -0.4179  -0.4168  -0.4134  -0.3880
 -0.3760  -0.3675  -0.3627  -0.3603  -0.3534  -0.3395  -0.3341  -0.3316
 -0.3065  -0.2801  -0.2643  -0.2522  -0.2319  -0.2121  -0.1977

          Ground-State Mulliken Net Atomic Charges

     Atom                 Charge (a.u.)
  ----------------------------------------
      1 F                    -0.245262
      2 C                     0.546240
      3 F                    -0.232032
      4 C                    -0.296366
      5 C                     0.186739
      6 C                    -0.233866
      7 C                     0.287593
      8 N                    -0.735942
      9 C                     0.312405
     10 C                     0.059567
     11 C                    -0.194845
     12 C                    -0.145314
     13 C                    -0.139007
     14 C                    -0.177373
     15 C                     0.312322
     16 C                     0.060418
     17 C                    -0.194939
     18 C                    -0.145341
     19 C                    -0.138849
     20 C                    -0.176589
     21 C                    -0.156425
     22 C                    -0.142414
     23 C                    -0.187990
     24 H                     0.163950
     25 H                     0.151223
     26 H                     0.129071
     27 H                     0.121954
     28 H                     0.125061
     29 H                     0.138650
     30 H                     0.128946
     31 H                     0.121895
     32 H                     0.125144
     33 H                     0.138862
     34 H                     0.152391
     35 H                     0.138717
     36 H                     0.141409
  ----------------------------------------
  Sum of atomic charges =     0.000000

                    Cartesian Multipole Moments
 -----------------------------------------------------------------
    Charge (ESU x 10^10)
                 0.0000
    Dipole Moment (Debye)
         X       0.4538      Y       0.3665      Z      -0.2659
       Tot       0.6410
    Quadrupole Moments (Debye-Ang)
        XX    -127.5427     XY       1.0415     YY    -119.7972
        XZ      -3.0140     YZ      -2.3642     ZZ    -130.8219

 Total job time:  115.30s(wall), 114.99s(cpu)
        *  Thank you very much for using Q-Chem.  Have a nice day.  *
