 Q-Chem 5.2, Q-Chem, Inc., Pleasanton, CA (2019)
 Q-Chem 5.2.1 for Intel X86 EM64T Linux

User input:
--------------------------------------------------------------
$molecule
0 1
C        -3.48822406800000   -0.94056595770000   -0.00432842620000
C        -3.13254378280000    0.34290480570000    0.00269125180000
C        -1.78275626590000    0.85895649890000    0.00390283430000
C        -0.65430183110000    0.12977565240000    0.00043396040000
C         0.65428022180000    0.72290213190000    0.00215716360000
C         1.78054596240000    0.01817793300000   -0.00020054400000
F         1.86683107740000   -1.30820862260000   -0.00447934580000
F         3.00173687220000    0.54414664210000    0.00133590980000
H        -4.52356359160000   -1.23385494740000   -0.00450938080000
H        -2.76877110120000   -1.74085788540000   -0.01005467740000
H        -3.90859098160000    1.09786043050000    0.00808831190000
H        -1.69581977750000    1.93830592550000    0.00840384970000
H        -0.69049257280000   -0.94936453050000   -0.00371855580000
H         0.74255980930000    1.79840679010000    0.00555487210000
$end

$rem
BASIS = 6-31G*
GUI = 2
METHOD = B3LYP
PRINT_ORBITALS false
MOLDEN_FORMAT false
--------------------------------------------------------------

             Standard Nuclear Orientation (Angstroms)
    I     Atom           X                Y                Z
 ----------------------------------------------------------------
    1      C       3.3557761109    -0.9052095009     0.0010101220
    2      C       2.9812997328     0.3729214091    -0.0009291750
    3      C       1.6240846108     0.8691107056    -0.0002558776
    4      C       0.5064521548     0.1234407534     0.0001526892
    5      C      -0.8106929741     0.6973026385     0.0006276341
    6      C      -1.9264957921    -0.0238769365     0.0000230220
    7      F      -1.9933072350    -1.3513933744    -0.0010077556
    8      F      -3.1552736636     0.4841166269     0.0004278801
    9      H       4.3953081385    -1.1832721297     0.0001549141
   10      H       2.6481444696    -1.7159894096     0.0034454766
   11      H       3.7461847970     1.1391994391    -0.0032090370
   12      H       1.5213183835     1.9470775229    -0.0004567547
   13      H       0.5584750545    -0.9550601237    -0.0000007299
   14      H      -0.9147458136     1.7714010138     0.0015145215
 ----------------------------------------------------------------

    9    -431.8609243864      6.48e-06  Convergence criterion met
 Total energy in the final basis set =     -431.8609243864

                    Orbital Energies (a.u.)
 --------------------------------------------------------------

 Alpha MOs
 -- Occupied --
-24.7413 -24.7375 -10.3569 -10.2037 -10.1993 -10.1911 -10.1906 -10.1800
 -1.2846  -1.2253  -0.8320  -0.7902  -0.7249  -0.6483  -0.6131  -0.5772
 -0.5383  -0.5286  -0.5187  -0.4761  -0.4543  -0.4413  -0.4270  -0.4227
 -0.4091  -0.3657  -0.3573  -0.3430  -0.2867  -0.2067

          Ground-State Mulliken Net Atomic Charges

     Atom                 Charge (a.u.)
  ----------------------------------------
      1 C                    -0.341709
      2 C                    -0.072441
      3 C                    -0.149712
      4 C                    -0.091461
      5 C                    -0.230522
      6 C                     0.533576
      7 F                    -0.237584
      8 F                    -0.244347
      9 H                     0.144402
     10 H                     0.141501
     11 H                     0.126694
     12 H                     0.122483
     13 H                     0.139763
     14 H                     0.159357
  ----------------------------------------
  Sum of atomic charges =     0.000000

                    Cartesian Multipole Moments
 -----------------------------------------------------------------
    Charge (ESU x 10^10)
                -0.0000
    Dipole Moment (Debye)
         X       0.7672      Y       0.6191      Z       0.0001
       Tot       0.9858
    Quadrupole Moments (Debye-Ang)
        XX     -45.4727     XY      -0.2701     YY     -41.8313
        XZ      -0.0054     YZ      -0.0046     ZZ     -47.4193

 Total job time:  8.80s(wall), 8.75s(cpu)
        *  Thank you very much for using Q-Chem.  Have a nice day.  *
