 Q-Chem 5.2, Q-Chem, Inc., Pleasanton, CA (2019)
 Q-Chem 5.2.1 for Intel X86 EM64T Linux

User input:
--------------------------------------------------------------
$molecule
0 1
C        -1.14560521390000    2.70454992450000   -0.48752431940000
C        -0.28125763500000    2.03461514610000    0.26059351960000
C         0.13865783750000    0.66030976590000    0.02055039470000
C        -0.66261383780000   -0.37715739520000   -0.37489185060000
C        -2.09738808100000   -0.47308879710000   -0.51149860100000
C        -3.00503036570000    0.13482558210000    0.23891566330000
F        -2.78578127940000    0.96930620240000    1.24531228360000
F        -4.31601234690000   -0.01851524370000    0.07062713800000
S         0.23804698220000   -1.84943041290000   -0.69618616660000
C         1.72782724620000   -1.07160215000000   -0.25664528400000
C         2.98993476720000   -1.64591105600000   -0.24982371660000
C         4.06216973330000   -0.86406290340000    0.12585854600000
C         3.87810916870000    0.47102566290000    0.48440186990000
C         2.62519494810000    1.04155523200000    0.47367316030000
C         1.51916042280000    0.27086661030000    0.10771533260000
H        -1.39713252650000    3.72891625810000   -0.27602757190000
H        -1.62825958470000    2.25681256910000   -1.34057179570000
H         0.21135679200000    2.52485425540000    1.08994801590000
H        -2.47230771190000   -1.16938750280000   -1.24773082220000
H         3.12037076470000   -2.67854220720000   -0.53363489390000
H         5.05426471840000   -1.28901576820000    0.14017214050000
H         4.73334992670000    1.06397959840000    0.77199621520000
H         2.49223910480000    2.07729443740000    0.74592694130000
$end

$rem
BASIS = 6-31G*
GUI = 2
METHOD = B3LYP
PRINT_ORBITALS false
MOLDEN_FORMAT false
--------------------------------------------------------------

             Standard Nuclear Orientation (Angstroms)
    I     Atom           X                Y                Z
 ----------------------------------------------------------------
    1      C       1.6499036458    -2.2570336207    -1.0413978203
    2      C       0.6960569571    -1.9291773882    -0.1821676819
    3      C       0.0452438403    -0.6273374743    -0.1164401427
    4      C       0.6525211835     0.5926328915    -0.2492389097
    5      C       2.0478882285     0.9577944516    -0.3270155876
    6      C       3.0570768672     0.3583509127     0.2883718616
    7      F       2.9983020504    -0.7065571402     1.0756320376
    8      F       4.3202263151     0.7648434090     0.1897538389
    9      S      -0.4898907099     1.9256354608    -0.2518855978
   10      C      -1.8189952333     0.8285493777    -0.0338454156
   11      C      -3.1600256512     1.1648959396     0.0724610113
   12      C      -4.0780041099     0.1488799003     0.2371986082
   13      C      -3.6644158309    -1.1819206337     0.2901869149
   14      C      -2.3331462952    -1.5153112644     0.1807097517
   15      C      -1.3798178174    -0.5064905734     0.0237254172
   16      H       2.0749395709    -3.2451216037    -1.0601020682
   17      H       2.0362634034    -1.5533270544    -1.7601726002
   18      H       0.3067318384    -2.6699925260     0.5037267138
   19      H       2.2876995008     1.8554049043    -0.8785774876
   20      H      -3.4682662293     2.1976908858     0.0254315165
   21      H      -5.1275013897     0.3858330277     0.3235174988
   22      H      -4.4020112399    -1.9601738051     0.4167437997
   23      H      -2.0220740933    -2.5480527332     0.2158412601
 ----------------------------------------------------------------

    9   -1059.9127372480      4.77e-06  Convergence criterion met
 Total energy in the final basis set =    -1059.9127372480

                    Orbital Energies (a.u.)
 --------------------------------------------------------------

 Alpha MOs
 -- Occupied --
-88.9047 -24.7424 -24.7387 -10.3617 -10.2324 -10.2196 -10.2115 -10.2006
-10.1981 -10.1957 -10.1945 -10.1912 -10.1904 -10.1881 -10.1823  -7.9666
 -5.9307  -5.9273  -5.9230  -1.2866  -1.2264  -0.9023  -0.8448  -0.8000
 -0.7992  -0.7583  -0.7262  -0.7048  -0.6523  -0.6141  -0.6051  -0.5918
 -0.5736  -0.5580  -0.5211  -0.5148  -0.4962  -0.4779  -0.4652  -0.4533
 -0.4440  -0.4424  -0.4331  -0.4226  -0.4172  -0.4037  -0.3926  -0.3874
 -0.3648  -0.3471  -0.3414  -0.3373  -0.2997  -0.2815  -0.2611  -0.2284
 -0.2053

          Ground-State Mulliken Net Atomic Charges

     Atom                 Charge (a.u.)
  ----------------------------------------
      1 C                    -0.332205
      2 C                    -0.122127
      3 C                     0.130686
      4 C                    -0.205585
      5 C                    -0.300729
      6 C                     0.576787
      7 F                    -0.224668
      8 F                    -0.243503
      9 S                     0.223402
     10 C                    -0.138138
     11 C                    -0.178772
     12 C                    -0.116816
     13 C                    -0.142342
     14 C                    -0.174047
     15 C                     0.111173
     16 H                     0.144763
     17 H                     0.149505
     18 H                     0.138525
     19 H                     0.173452
     20 H                     0.139633
     21 H                     0.130646
     22 H                     0.129770
     23 H                     0.130591
  ----------------------------------------
  Sum of atomic charges =     0.000000

                    Cartesian Multipole Moments
 -----------------------------------------------------------------
    Charge (ESU x 10^10)
                 0.0000
    Dipole Moment (Debye)
         X      -0.7228      Y      -0.3656      Z      -0.3032
       Tot       0.8649
    Quadrupole Moments (Debye-Ang)
        XX     -85.7719     XY       0.0927     YY     -84.7034
        XZ      -3.2639     YZ      -1.1980     ZZ     -93.5135

 Total job time:  45.81s(wall), 42.62s(cpu)
        *  Thank you very much for using Q-Chem.  Have a nice day.  *
