 Q-Chem 5.2, Q-Chem, Inc., Pleasanton, CA (2019)
 Q-Chem 5.2.1 for Intel X86 EM64T Linux

User input:
--------------------------------------------------------------
$molecule
0 1
C         0.61479444830000    3.49086322940000   -0.49875880320000
C        -0.03094224640000    2.56517507130000    0.19820700010000
C         0.23060545350000    1.13508711760000    0.10983666140000
C        -0.76177330710000    0.18205500410000    0.08601189950000
C        -2.17288676610000    0.43953462320000    0.12506811510000
C        -3.14106449360000   -0.46942864800000    0.08333309790000
F        -2.99997465090000   -1.78477208580000   -0.00649294150000
F        -4.43502970500000   -0.16235188470000    0.12561312870000
S        -0.14049487210000   -1.44734925900000   -0.05837022480000
C         1.49113013970000   -0.85113065530000   -0.06153782570000
C         2.64315125510000   -1.62024342730000   -0.13433134040000
C         3.86340830790000   -0.98010481270000   -0.09030930870000
C         3.93291458890000    0.40673780760000    0.04416634200000
C         2.79042028600000    1.17079328860000    0.11370007640000
C         1.53870853080000    0.55262473220000    0.03961155810000
H         0.38325433220000    4.53679038430000   -0.39191874870000
H         1.37419092820000    3.23801127140000   -1.21889204230000
H        -0.82209294500000    2.85970897990000    0.87659374280000
H        -2.48755777040000    1.46987505900000    0.18906859290000
H         2.57513271090000   -2.69371701830000   -0.21727958880000
H         4.77348219140000   -1.55771785910000   -0.14674694210000
H         4.89959480600000    0.88459576080000    0.09978084840000
H         2.85184262120000    2.24018506200000    0.24199836730000
$end

$rem
BASIS = 6-31G*
GUI = 2
METHOD = B3LYP
PRINT_ORBITALS false
MOLDEN_FORMAT false
--------------------------------------------------------------

             Standard Nuclear Orientation (Angstroms)
    I     Atom           X                Y                Z
 ----------------------------------------------------------------
    1      C       0.9012449698     3.3611949003    -0.4537816859
    2      C       0.1452174574     2.5058142989     0.2217789724
    3      C       0.2527643863     1.0564964162     0.1254493063
    4      C      -0.8359107017     0.2164245987     0.0733021357
    5      C      -2.2115262228     0.6245419977     0.0868838605
    6      C      -3.2710247089    -0.1742085778     0.0177128544
    7      F      -3.2708017205    -1.4964344506    -0.0813937148
    8      F      -4.5249175256     0.2705379701     0.0372837595
    9      S      -0.3911513092    -1.4695031707    -0.0737624192
   10      C       1.2949772797    -1.0530087355    -0.0392717926
   11      C       2.3585807415    -1.9415304342    -0.0963933221
   12      C       3.6395936041    -1.4372698676    -0.0224339617
   13      C       3.8554850271    -0.0670256238     0.1261220306
   14      C       2.8008724761     0.8154622747     0.1801259819
   15      C       1.4915839893     0.3366509240     0.0756887300
   16      H       0.7817107286     4.4252384684    -0.3419242481
   17      H       1.6436128501     3.0328451404    -1.1610902281
   18      H      -0.6233571632     2.8793235139     0.8871075699
   19      H      -2.4144873155     1.6823700495     0.1541291079
   20      H       2.1769045132    -3.0007685180    -0.1905257540
   21      H       4.4830297462    -2.1093971800    -0.0662159389
   22      H       4.8667130407     0.3032171841     0.2051790138
   23      H       2.9746179739     1.8710373678     0.3194301259
 ----------------------------------------------------------------

    9   -1059.9191671746      9.39e-06  Convergence criterion met
 Total energy in the final basis set =    -1059.9191671746

                    Orbital Energies (a.u.)
 --------------------------------------------------------------

 Alpha MOs
 -- Occupied --
-88.9040 -24.7511 -24.7416 -10.3645 -10.2328 -10.2178 -10.2149 -10.2016
-10.1999 -10.1979 -10.1941 -10.1891 -10.1883 -10.1869 -10.1864  -7.9656
 -5.9299  -5.9262  -5.9220  -1.2922  -1.2321  -0.9024  -0.8452  -0.8051
 -0.7993  -0.7561  -0.7255  -0.7104  -0.6541  -0.6149  -0.6048  -0.5913
 -0.5798  -0.5543  -0.5257  -0.5197  -0.4997  -0.4817  -0.4628  -0.4554
 -0.4474  -0.4418  -0.4324  -0.4280  -0.4214  -0.4054  -0.4008  -0.3837
 -0.3615  -0.3500  -0.3422  -0.3332  -0.3015  -0.2889  -0.2651  -0.2270
 -0.2025

          Ground-State Mulliken Net Atomic Charges

     Atom                 Charge (a.u.)
  ----------------------------------------
      1 C                    -0.338120
      2 C                    -0.127894
      3 C                     0.094316
      4 C                    -0.205637
      5 C                    -0.235387
      6 C                     0.542567
      7 F                    -0.224256
      8 F                    -0.244761
      9 S                     0.237884
     10 C                    -0.141944
     11 C                    -0.180147
     12 C                    -0.115311
     13 C                    -0.147140
     14 C                    -0.174751
     15 C                     0.111975
     16 H                     0.145663
     17 H                     0.155934
     18 H                     0.139695
     19 H                     0.172641
     20 H                     0.139661
     21 H                     0.129910
     22 H                     0.128815
     23 H                     0.136290
  ----------------------------------------
  Sum of atomic charges =     0.000000

                    Cartesian Multipole Moments
 -----------------------------------------------------------------
    Charge (ESU x 10^10)
                 0.0000
    Dipole Moment (Debye)
         X       0.8803      Y       1.1941      Z       0.1088
       Tot       1.4875
    Quadrupole Moments (Debye-Ang)
        XX     -86.8881     XY      -2.9562     YY     -83.3111
        XZ      -1.2183     YZ       0.7544     ZZ     -93.7945

 Total job time:  41.34s(wall), 41.21s(cpu)
        *  Thank you very much for using Q-Chem.  Have a nice day.  *
