 Q-Chem 5.2, Q-Chem, Inc., Pleasanton, CA (2019)
 Q-Chem 5.2.1 for Intel X86 EM64T Linux

User input:
--------------------------------------------------------------
$molecule
0 1
C        -3.98039129770000    2.78980210890000   -0.41225473250000
C        -2.66423379530000    2.62427891460000   -0.38901864870000
C        -2.04614082480000    1.33518795510000   -0.18761553910000
N        -2.73583629200000    0.17686411850000   -0.00441307890000
C        -1.82696258150000   -0.75432045730000    0.14384362970000
C        -2.24184307950000   -2.12124364090000    0.34258089660000
C        -1.50860436620000   -3.21795007880000    0.49298141660000
N        -0.57063007370000   -0.16358210380000    0.05005808190000
C         0.74920595980000   -0.64433824680000    0.13998134730000
O         1.02438368120000   -1.77952024070000    0.42157565550000
O         1.57590624310000    0.33906916910000   -0.12559312320000
C         3.01535549190000    0.14207804250000   -0.08632527780000
C         3.57519285160000    1.51615180370000   -0.44971600850000
C         3.44936327680000   -0.26511686950000    1.32042674770000
C         3.43058402250000   -0.90296428480000   -1.12024667790000
N        -0.74598226970000    1.15978181570000   -0.16205132060000
H        -4.42935495430000    3.75623620640000   -0.56310174040000
H        -4.64001595490000    1.94942141110000   -0.27888353640000
H        -1.97070890670000    3.44211133460000   -0.51899008880000
H        -3.32293891550000   -2.18159564760000    0.35213222090000
H        -0.43448241240000   -3.20754254540000    0.49509671710000
H        -1.98914854100000   -4.17276177820000    0.62564217240000
H         3.23178999940000    2.25696536010000    0.26671545980000
H         3.22885990430000    1.80862623450000   -1.43694179060000
H         4.66065806250000    1.48944839800000   -0.44487191250000
H         3.09307443830000    0.46297545700000    2.04591957540000
H         4.53376750870000   -0.30723396900000    1.36798995670000
H         3.04917184260000   -1.24237868360000    1.57671449120000
H         3.05637625780000   -0.62487143010000   -2.10317163500000
H         3.03569101990000   -1.88040603970000   -0.85676316940000
H         4.51446376020000   -0.96232941810000   -1.16094381530000
$end

$rem
BASIS = 6-31G*
GUI = 2
METHOD = B3LYP
PRINT_ORBITALS false
MOLDEN_FORMAT false
--------------------------------------------------------------

             Standard Nuclear Orientation (Angstroms)
    I     Atom           X                Y                Z
 ----------------------------------------------------------------
    1      C       4.4806756139     2.0572652836     0.0052448015
    2      C       3.1557698862     2.1254406183    -0.0083695626
    3      C       2.3166966737     0.9505757342    -0.0058629930
    4      N       2.7880769746    -0.3255430630     0.0108258204
    5      C       1.7268549396    -1.0929370540     0.0037235353
    6      C       1.8906980597    -2.5255078324     0.0353101705
    7      C       0.9730722714    -3.4849796672     0.0553363730
    8      N       0.5961919258    -0.2821781459    -0.0165260013
    9      C      -0.7890404538    -0.5301981428    -0.0447599101
   10      O      -1.2647181755    -1.6292751938    -0.1417992482
   11      O      -1.4248410923     0.6136979217     0.0464137977
   12      C      -2.8768945386     0.6705150567     0.0204482454
   13      C      -3.1795432815     2.1623693776     0.1482129401
   14      C      -3.3980787755     0.1236363743    -1.3071105717
   15      C      -3.4537709948    -0.1028157596     1.2048023575
   16      N       1.0057549907     1.0059511935    -0.0199546140
   17      H       5.0955346907     2.9405893792     0.0030295527
   18      H       4.9793806697     1.1032026666     0.0190314485
   19      H       2.6196668552     3.0630539251    -0.0222994121
   20      H       2.9438685289    -2.7767325640     0.0501390706
   21      H      -0.0822364602    -3.2853662090     0.0372059767
   22      H       1.2753404320    -4.5183620160     0.0860258131
   23      H      -2.7220677645     2.7045780895    -0.6744231624
   24      H      -2.7715076709     2.5452939262     1.0793296237
   25      H      -4.2526107566     2.3275182105     0.1332691145
   26      H      -2.9303100442     0.6497473820    -2.1364474375
   27      H      -4.4734962778     0.2667017154    -1.3616830109
   28      H      -3.1808017877    -0.9374002417    -1.3958193926
   29      H      -3.0209088544     0.2605224930     2.1343851886
   30      H      -3.2418536409    -1.1642583006     1.1089525045
   31      H      -4.5303274169     0.0377358970     1.2401189763
 ----------------------------------------------------------------

    9    -742.8736733425      7.71e-06  Convergence criterion met
 Total energy in the final basis set =     -742.8736733425

                    Orbital Energies (a.u.)
 --------------------------------------------------------------

 Alpha MOs
 -- Occupied --
-19.2023 -19.1529 -14.4335 -14.3544 -14.3249 -10.3656 -10.2715 -10.2657
-10.2409 -10.2012 -10.1929 -10.1871 -10.1844 -10.1821 -10.1801 -10.1801
 -1.1429  -1.0798  -1.0461  -0.9185  -0.8586  -0.8241  -0.7807  -0.7730
 -0.7052  -0.7030  -0.6932  -0.6463  -0.6425  -0.5973  -0.5561  -0.5379
 -0.5246  -0.5107  -0.5000  -0.4753  -0.4658  -0.4654  -0.4598  -0.4383
 -0.4283  -0.4236  -0.4207  -0.4034  -0.3960  -0.3826  -0.3765  -0.3693
 -0.3632  -0.3612  -0.3471  -0.3328  -0.3289  -0.3227  -0.3099  -0.2926
 -0.2699  -0.2628  -0.2332

          Ground-State Mulliken Net Atomic Charges

     Atom                 Charge (a.u.)
  ----------------------------------------
      1 C                    -0.340235
      2 C                    -0.086415
      3 C                     0.437594
      4 N                    -0.541140
      5 C                     0.537398
      6 C                    -0.106975
      7 C                    -0.349269
      8 N                    -0.465426
      9 C                     0.830003
     10 O                    -0.484413
     11 O                    -0.454817
     12 C                     0.296396
     13 C                    -0.448760
     14 C                    -0.470521
     15 C                    -0.470249
     16 N                    -0.318320
     17 H                     0.147144
     18 H                     0.173182
     19 H                     0.145827
     20 H                     0.159470
     21 H                     0.209912
     22 H                     0.147123
     23 H                     0.163182
     24 H                     0.161543
     25 H                     0.148860
     26 H                     0.155483
     27 H                     0.150039
     28 H                     0.184630
     29 H                     0.154252
     30 H                     0.184487
     31 H                     0.150016
  ----------------------------------------
  Sum of atomic charges =     0.000000

                    Cartesian Multipole Moments
 -----------------------------------------------------------------
    Charge (ESU x 10^10)
                 0.0000
    Dipole Moment (Debye)
         X      -2.0590      Y       0.4463      Z       0.1339
       Tot       2.1111
    Quadrupole Moments (Debye-Ang)
        XX     -85.0848     XY      -1.8260     YY     -89.1983
        XZ      -0.1969     YZ      -0.5602     ZZ     -94.6182

 Total job time:  54.00s(wall), 52.74s(cpu)
        *  Thank you very much for using Q-Chem.  Have a nice day.  *
