 Q-Chem 5.2, Q-Chem, Inc., Pleasanton, CA (2019)
 Q-Chem 5.2.1 for Intel X86 EM64T Linux

User input:
--------------------------------------------------------------
$molecule
0 1
C         3.84847633220000   -0.09760504010000    0.08387568570000
C         2.81224135790000    0.72702679400000   -0.02972050610000
C         1.39930263590000    0.37606467890000   -0.01559944820000
C         0.44395577660000    1.40144333660000   -0.01503676890000
F         0.85651117000000    2.67909494390000   -0.02203548990000
C        -0.91553707970000    1.15005830440000   -0.00358292960000
F        -1.75719033280000    2.19615090920000   -0.00065099110000
C        -1.44138837380000   -0.14921035210000    0.00418634110000
C        -2.88652495930000   -0.32501962840000    0.01478627320000
C        -3.56084772610000   -1.47052772170000    0.02256693200000
C        -0.48863446360000   -1.17287700500000   -0.00084687620000
F        -0.86865284010000   -2.45939181380000    0.00210044970000
C         0.87582982180000   -0.92052893240000   -0.00992794100000
F         1.69142850390000   -1.98554847840000   -0.02190982520000
H         4.85255428350000    0.28974084690000    0.06065581110000
H         3.75344304100000   -1.16118438430000    0.20411234280000
H         2.99312549830000    1.78835692010000   -0.13594885700000
H        -3.43499338200000    0.60755470590000    0.01616878210000
H        -3.09366324130000   -2.43814496210000    0.02198063560000
H        -4.63728198780000   -1.46326275090000    0.02986274160000
$end

$rem
BASIS = 6-31G*
GUI = 2
METHOD = B3LYP
PRINT_ORBITALS false
MOLDEN_FORMAT false
--------------------------------------------------------------

             Standard Nuclear Orientation (Angstroms)
    I     Atom           X                Y                Z
 ----------------------------------------------------------------
    1      C       3.7663904258    -0.7834557157     0.0778117349
    2      C       2.8976545828     0.2166910200    -0.0303974179
    3      C       1.4444302366     0.1288671161    -0.0164115632
    4      C       0.6918172788     1.3110751548    -0.0095399632
    5      F       1.3301724354     2.4922382483    -0.0105424814
    6      C      -0.6907195166     1.3114413367     0.0022212579
    7      F      -1.3277673045     2.4932974020     0.0114347985
    8      C      -1.4444125804     0.1296534838     0.0040165616
    9      C      -2.8973960250     0.2199329808     0.0154066074
   10      C      -3.7690724493    -0.7836272439     0.0181654186
   11      C      -0.6940383779    -1.0503757284    -0.0073138214
   12      F      -1.3020159024    -2.2461585386    -0.0104454252
   13      C       0.6935626194    -1.0507127592    -0.0167032028
   14      F       1.3015424178    -2.2463866371    -0.0350321888
   15      H       4.8242172612    -0.5853444777     0.0553873099
   16      H       3.4792609912    -1.8125481973     0.1927663072
   17      H       3.2687923632     1.2278632368    -0.1314551601
   18      H      -3.2668384865     1.2367816167     0.0221542270
   19      H      -3.4859366419    -1.8201321934     0.0121309492
   20      H      -4.8261774701    -0.5804721259     0.0267503671
 ----------------------------------------------------------------

    9    -783.9622355033      2.48e-06  Convergence criterion met
 Total energy in the final basis set =     -783.9622355033

                    Orbital Energies (a.u.)
 --------------------------------------------------------------

 Alpha MOs
 -- Occupied --
-24.7292 -24.7291 -24.7278 -24.7278 -10.2943 -10.2937 -10.2931 -10.2925
-10.2307 -10.2307 -10.2076 -10.2075 -10.1929 -10.1927  -1.2506  -1.2482
 -1.2344  -1.2335  -0.8991  -0.8318  -0.7891  -0.7676  -0.7431  -0.6740
 -0.6492  -0.6085  -0.5968  -0.5779  -0.5600  -0.5452  -0.5310  -0.5093
 -0.5072  -0.4874  -0.4778  -0.4728  -0.4643  -0.4577  -0.4397  -0.4384
 -0.4266  -0.4208  -0.4062  -0.3808  -0.3695  -0.3681  -0.3500  -0.3365
 -0.2825  -0.2476  -0.2305

          Ground-State Mulliken Net Atomic Charges

     Atom                 Charge (a.u.)
  ----------------------------------------
      1 C                    -0.348437
      2 C                    -0.104837
      3 C                     0.024239
      4 C                     0.246406
      5 F                    -0.275974
      6 C                     0.245778
      7 F                    -0.276048
      8 C                     0.025595
      9 C                    -0.104656
     10 C                    -0.349562
     11 C                     0.263556
     12 F                    -0.275982
     13 C                     0.263666
     14 F                    -0.276029
     15 H                     0.150351
     16 H                     0.166833
     17 H                     0.153908
     18 H                     0.153876
     19 H                     0.167104
     20 H                     0.150217
  ----------------------------------------
  Sum of atomic charges =     0.000000

                    Cartesian Multipole Moments
 -----------------------------------------------------------------
    Charge (ESU x 10^10)
                 0.0000
    Dipole Moment (Debye)
         X       0.0058      Y      -0.1970      Z       0.0215
       Tot       0.1983
    Quadrupole Moments (Debye-Ang)
        XX     -66.6966     XY      -0.0040     YY     -80.8125
        XZ       0.0123     YZ      -0.3432     ZZ     -77.6005

 Total job time:  30.50s(wall), 30.39s(cpu)
        *  Thank you very much for using Q-Chem.  Have a nice day.  *
