 Q-Chem 5.2, Q-Chem, Inc., Pleasanton, CA (2019)
 Q-Chem 5.2.1 for Intel X86 EM64T Linux

User input:
--------------------------------------------------------------
$molecule
0 1
C        -1.13792620780000   -3.18947866260000   -0.85791836950000
C        -1.27713401270000   -2.34796444870000    0.15405077690000
C        -0.78070570110000   -0.95549399980000    0.12155074790000
C        -1.59279829200000    0.16453213160000    0.08329622890000
O        -2.95663120960000    0.22078321010000    0.07452296020000
C        -3.75620898570000   -0.90106450750000    0.35504498470000
C        -1.02514437620000    1.45321006560000   -0.00718190270000
C         0.32618323790000    1.67892245450000   -0.05045583560000
C         0.92355149920000    3.00196772910000   -0.15285423280000
C         0.27364368590000    4.15671867950000   -0.24300037250000
C         1.19110701030000    0.54520874650000    0.01564197840000
N         2.51862306810000    0.75452206380000   -0.00898586310000
C         3.32958181850000   -0.26345889100000    0.05929814240000
C         2.89110349590000   -1.59058324170000    0.17188339760000
C         1.54404552930000   -1.83236293340000    0.19505831420000
C         0.63069457420000   -0.75889651350000    0.10301714450000
H        -1.48184518930000   -4.20885783330000   -0.80244527040000
H        -0.68456689380000   -2.88376816300000   -1.78681424070000
H        -1.72999229310000   -2.68398873290000    1.07934594820000
H        -4.78325314690000   -0.55193959740000    0.24680972330000
H        -3.60805016940000   -1.25178645440000    1.38031955040000
H        -3.57749342910000   -1.72027484710000   -0.34519396580000
H        -1.72637462090000    2.27127421680000   -0.04926674460000
H         2.00429345190000    2.98599110240000   -0.15246268000000
H        -0.80105272960000    4.22621456980000   -0.25080785140000
H         0.80526849070000    5.09009228500000   -0.31471247200000
H         4.38651651560000   -0.02941851320000    0.03186615590000
H         3.60545320330000   -2.39645157590000    0.24324159590000
H         1.17167862800000   -2.84214172600000    0.28847610870000
$end

$rem
BASIS = 6-31G*
GUI = 2
METHOD = B3LYP
PRINT_ORBITALS false
MOLDEN_FORMAT false
--------------------------------------------------------------

             Standard Nuclear Orientation (Angstroms)
    I     Atom           X                Y                Z
 ----------------------------------------------------------------
    1      C      -2.7375335482     1.9385622800     0.8784094296
    2      C      -2.3718287559     1.1702799352    -0.1353009738
    3      C      -1.1582789141     0.3257330985    -0.1127467377
    4      C      -1.1677731212    -1.0575862343    -0.0708683078
    5      O      -2.2447643329    -1.8959790758    -0.0492175690
    6      C      -3.5501840226    -1.4484745698    -0.3178784679
    7      C       0.0439900784    -1.7761270217     0.0093636248
    8      C       1.2751958080    -1.1743219718     0.0388283447
    9      C       2.5312304425    -1.9035298303     0.1305669191
   10      C       2.6744070979    -3.2207153282     0.2226487260
   11      C       1.3194469540     0.2507695864    -0.0313479466
   12      N       2.5215601549     0.8520331881    -0.0202388279
   13      C       2.5891388492     2.1515759757    -0.0925139114
   14      C       1.4599230174     2.9764218095    -0.1959483210
   15      C       0.2230539873     2.3902245054    -0.2052962852
   16      C       0.1046411503     0.9860811788    -0.1084891724
   17      H      -3.6103805086     2.5680773469     0.8300318677
   18      H      -2.1816938815     1.9556393877     1.8017683815
   19      H      -2.9448425628     1.1781715623    -1.0549514482
   20      H      -4.1819214185    -2.3292081583    -0.2010923714
   21      H      -3.6436803627    -1.0795749546    -1.3432156623
   22      H      -3.8738865000    -0.6761758645     0.3836561602
   23      H      -0.0507496573    -2.8492782728     0.0551317370
   24      H       3.4013566736    -1.2624180097     0.1198641324
   25      H       1.8403784352    -3.9018468781     0.2405099264
   26      H       3.6501702858    -3.6711085861     0.2857831875
   27      H       3.5854748817     2.5754666919    -0.0760963163
   28      H       1.5721343207     4.0471987098    -0.2711595043
   29      H      -0.6677402653     2.9952968347    -0.2913792656
 ----------------------------------------------------------------

    9    -671.2325958629      3.27e-06  Convergence criterion met
 Total energy in the final basis set =     -671.2325958629

                    Orbital Energies (a.u.)
 --------------------------------------------------------------

 Alpha MOs
 -- Occupied --
-19.1789 -14.3189 -10.2526 -10.2382 -10.2149 -10.2136 -10.2014 -10.2010
-10.1984 -10.1961 -10.1927 -10.1897 -10.1884 -10.1844 -10.1752 -10.1718
 -1.0681  -0.9452  -0.8574  -0.8215  -0.7851  -0.7723  -0.7570  -0.7156
 -0.7036  -0.6451  -0.6242  -0.6174  -0.5804  -0.5556  -0.5295  -0.5243
 -0.5103  -0.4783  -0.4718  -0.4673  -0.4572  -0.4457  -0.4359  -0.4271
 -0.4119  -0.4092  -0.4014  -0.3896  -0.3669  -0.3651  -0.3491  -0.3478
 -0.3351  -0.3231  -0.3021  -0.2753  -0.2629  -0.2446  -0.2283  -0.2037

          Ground-State Mulliken Net Atomic Charges

     Atom                 Charge (a.u.)
  ----------------------------------------
      1 C                    -0.308219
      2 C                    -0.180822
      3 C                     0.017659
      4 C                     0.329112
      5 O                    -0.513344
      6 C                    -0.217903
      7 C                    -0.293656
      8 C                     0.173522
      9 C                    -0.100122
     10 C                    -0.348487
     11 C                     0.166732
     12 N                    -0.507819
     13 C                     0.041165
     14 C                    -0.154897
     15 C                    -0.152768
     16 C                     0.123278
     17 H                     0.144623
     18 H                     0.155945
     19 H                     0.148015
     20 H                     0.164996
     21 H                     0.145993
     22 H                     0.168250
     23 H                     0.140236
     24 H                     0.164764
     25 H                     0.139545
     26 H                     0.143209
     27 H                     0.133991
     28 H                     0.132265
     29 H                     0.144738
  ----------------------------------------
  Sum of atomic charges =     0.000000

                    Cartesian Multipole Moments
 -----------------------------------------------------------------
    Charge (ESU x 10^10)
                 0.0000
    Dipole Moment (Debye)
         X      -3.0105      Y       1.4894      Z      -0.3651
       Tot       3.3786
    Quadrupole Moments (Debye-Ang)
        XX     -84.4478     XY       0.2977     YY     -84.7162
        XZ       1.5465     YZ       0.3372     ZZ     -94.5267

 Total job time:  55.65s(wall), 55.49s(cpu)
        *  Thank you very much for using Q-Chem.  Have a nice day.  *
