 Q-Chem 5.2, Q-Chem, Inc., Pleasanton, CA (2019)
 Q-Chem 5.2.1 for Intel X86 EM64T Linux

User input:
--------------------------------------------------------------
$molecule
0 1
C        -4.24348884890000    1.25471697170000   -0.00431526800000
N        -3.19009278880000    0.28129056360000   -0.00072708940000
C        -3.34746009180000   -1.07744548130000    0.00300273580000
C        -2.13667165330000   -1.69884851750000    0.00528260770000
C        -1.85495117580000    0.55745810800000   -0.00092656100000
C        -1.15013687690000   -0.67387005120000    0.00269585740000
C         0.24071704600000   -0.67999404000000    0.00275833960000
C         0.91913063760000    0.53129706050000   -0.00067024690000
C         2.36979957340000    0.62905516490000   -0.00151586630000
C         3.26726233920000   -0.34505962720000    0.00014266100000
F         3.05934205930000   -1.65870202460000    0.00334648980000
F         4.58456165100000   -0.12122614370000   -0.00119226690000
C         0.19416099840000    1.74182428070000   -0.00378081930000
C        -1.17956909410000    1.77358652150000   -0.00397551500000
H        -5.20567692630000    0.74577663860000   -0.00618504130000
H        -4.17841103440000    1.88920008420000   -0.89210935920000
H        -4.18291514620000    1.89120747990000    0.88239162670000
H        -4.33187403930000   -1.50670974710000    0.00375844610000
H        -1.95784489250000   -2.75509763850000    0.00831771340000
H         0.76799107500000   -1.61941565650000    0.00544717690000
H         2.78562011770000    1.62664389480000   -0.00403633880000
H         0.74312933790000    2.67198441570000   -0.00614536040000
H        -1.71221667900000    2.71277541450000   -0.00642392330000
$end

$rem
BASIS = 6-31G*
GUI = 2
METHOD = B3LYP
PRINT_ORBITALS false
MOLDEN_FORMAT false
--------------------------------------------------------------

             Standard Nuclear Orientation (Angstroms)
    I     Atom           X                Y                Z
 ----------------------------------------------------------------
    1      C       4.2156629031    -0.8288628901    -0.0014940525
    2      N       3.0761819246     0.0422265788    -0.0003350993
    3      C       3.1063141782     1.4097184582    -0.0001721014
    4      C       1.8429120494     1.9156532514     0.0006152587
    5      C       1.7725657832    -0.3570930811     0.0003313423
    6      C       0.9561307782     0.8032426479     0.0008130470
    7      C      -0.4292477165     0.6797982079     0.0010099605
    8      C      -0.9918941817    -0.5894187970     0.0008193449
    9      C      -2.4271521486    -0.8218668643     0.0003860287
   10      C      -3.4114415026     0.0644263374    -0.0004033265
   11      F      -3.3267759964     1.3917277895    -0.0006539806
   12      F      -4.7021670568    -0.2811280892    -0.0010109936
   13      C      -0.1573288838    -1.7271655031     0.0007929606
   14      C       1.2133881385    -1.6308430140     0.0005326678
   15      H       5.1262668740    -0.2325247728    -0.0047975297
   16      H       4.2100831335    -1.4689653706    -0.8876204380
   17      H       4.2145139318    -1.4659107946     0.8868792389
   18      H       4.0464679518     1.9288040580    -0.0006443485
   19      H       1.5664848606     2.9506597007     0.0009101698
   20      H      -1.0417263569     1.5660306464     0.0013015116
   21      H      -2.7482510345    -1.8538512829     0.0005168101
   22      H      -0.6172770054    -2.7044154279     0.0009179117
   23      H       1.8311952687    -2.5163426291     0.0004803558
 ----------------------------------------------------------------

    9    -678.9957565631      5.80e-06  Convergence criterion met
 Total energy in the final basis set =     -678.9957565631

                    Orbital Energies (a.u.)
 --------------------------------------------------------------

 Alpha MOs
 -- Occupied --
-24.7320 -24.7210 -14.3817 -10.3415 -10.2347 -10.2128 -10.2086 -10.1908
-10.1899 -10.1844 -10.1794 -10.1767 -10.1758 -10.1668  -1.2716  -1.2110
 -0.9959  -0.8526  -0.8086  -0.7869  -0.7396  -0.7208  -0.6913  -0.6384
 -0.6125  -0.5853  -0.5715  -0.5575  -0.5251  -0.5120  -0.5058  -0.4885
 -0.4740  -0.4498  -0.4432  -0.4359  -0.4286  -0.4251  -0.4142  -0.3998
 -0.3982  -0.3943  -0.3868  -0.3606  -0.3429  -0.3310  -0.2792  -0.2652
 -0.2047  -0.1939

          Ground-State Mulliken Net Atomic Charges

     Atom                 Charge (a.u.)
  ----------------------------------------
      1 C                    -0.324962
      2 N                    -0.485219
      3 C                     0.035055
      4 C                    -0.238063
      5 C                     0.309168
      6 C                     0.120531
      7 C                    -0.282225
      8 C                     0.192640
      9 C                    -0.301658
     10 C                     0.536333
     11 F                    -0.239894
     12 F                    -0.256853
     13 C                    -0.217990
     14 C                    -0.165452
     15 H                     0.170211
     16 H                     0.172308
     17 H                     0.172288
     18 H                     0.145193
     19 H                     0.127624
     20 H                     0.135306
     21 H                     0.152988
     22 H                     0.119968
     23 H                     0.122704
  ----------------------------------------
  Sum of atomic charges =     0.000000

                    Cartesian Multipole Moments
 -----------------------------------------------------------------
    Charge (ESU x 10^10)
                 0.0000
    Dipole Moment (Debye)
         X       3.8082      Y      -1.1137      Z      -0.0017
       Tot       3.9677
    Quadrupole Moments (Debye-Ang)
        XX     -67.6311     XY      -0.2835     YY     -72.5390
        XZ      -0.0121     YZ       0.0015     ZZ     -81.8067

 Total job time:  33.90s(wall), 33.78s(cpu)
        *  Thank you very much for using Q-Chem.  Have a nice day.  *
