 Q-Chem 5.2, Q-Chem, Inc., Pleasanton, CA (2019)
 Q-Chem 5.2.1 for Intel X86 EM64T Linux

User input:
--------------------------------------------------------------
$molecule
0 1
C        -4.63808370970000    0.91497727380000    1.25426838980000
C        -3.76267206650000    1.28143808630000    0.05768186740000
C        -3.23486558890000    2.70965168720000    0.19442682050000
O        -2.55862564460000    0.46576569590000    0.04690375970000
C        -2.63588801510000   -0.85363530120000   -0.05250133940000
N        -1.37146242670000   -1.43411510090000   -0.06174776910000
C        -1.20847937160000   -2.81094712330000   -0.13293408850000
C         0.10261640640000   -3.13166849940000   -0.14037481420000
C        -0.11166925760000   -0.85696706600000   -0.02367522520000
C         0.83748875840000   -1.90465809810000   -0.07347558510000
C         2.19459157580000   -1.61936518470000   -0.05660509160000
C         2.61234679920000   -0.29351514080000    0.00756247670000
C         4.04341319960000   -0.03490670710000    0.01652453810000
C         4.67972320090000    1.12643512500000    0.04815202770000
F         4.16195661120000    2.34979168940000    0.08155361030000
F         6.00970798360000    1.22536728990000    0.04967983150000
C         1.65230445320000    0.73113748340000    0.05898681850000
C         0.29874101510000    0.46631426590000    0.04479765960000
O        -3.63424277440000   -1.52156582500000   -0.12776692580000
C        -4.51979393040000    1.10966326890000   -1.25756378890000
H        -4.06439031610000    0.99128140460000    2.17562638120000
H        -5.01139603410000   -0.10047512870000    1.15506231320000
H        -5.48237209070000    1.59625940890000    1.30805095460000
H        -2.66449549250000    2.81136403540000    1.11422351060000
H        -4.06447004350000    3.40970626860000    0.21472888870000
H        -2.58862490090000    2.95282549970000   -0.64515545920000
H        -2.08108019200000   -3.43309862920000   -0.17164532390000
H         0.52149389530000   -4.11676775950000   -0.18806351540000
H         2.91671227390000   -2.42111700410000   -0.09573784470000
H         4.68637916520000   -0.90318759890000   -0.00980281780000
H         1.97231489390000    1.75814946520000    0.11159802500000
H        -0.41408395940000    1.27179993390000    0.08577036190000
H        -5.36315522950000    1.79362165340000   -1.28391957940000
H        -4.88914248300000    0.09220569960000   -1.35226294550000
H        -3.86380757150000    1.32637002940000   -2.09822963690000
$end

$rem
BASIS = 6-31G*
GUI = 2
METHOD = B3LYP
PRINT_ORBITALS false
MOLDEN_FORMAT false
--------------------------------------------------------------

             Standard Nuclear Orientation (Angstroms)
    I     Atom           X                Y                Z
 ----------------------------------------------------------------
    1      C      -4.4628172828     1.1135816847     1.2175276931
    2      C      -3.5788686555     1.3950101229     0.0043124458
    3      C      -3.0019196286     2.8089286683     0.0752850980
    4      O      -2.4035844426     0.5387006857     0.0289410606
    5      C      -2.5264097710    -0.7804065717    -0.0102994926
    6      N      -1.2826999139    -1.4039154925     0.0050881667
    7      C      -1.1673118855    -2.7873554083    -0.0036861365
    8      C       0.1319673246    -3.1530532381     0.0016370243
    9      C      -0.0037206683    -0.8693698202     0.0151487467
   10      C       0.9087427066    -1.9503120730     0.0116919378
   11      C       2.2748872767    -1.7114612832     0.0136996171
   12      C       2.7381206617    -0.3992420363     0.0169739780
   13      C       4.1772450351    -0.1899387921     0.0121914264
   14      C       4.8531571889     0.9490351750    -0.0098682553
   15      F       4.3778138329     2.1897548854    -0.0313737157
   16      F       6.1857539079     1.0020658037    -0.0146814231
   17      C       1.8139929459     0.6591477885     0.0231150633
   18      C       0.4520966048     0.4407331917     0.0228508798
   19      O      -3.5473336672    -1.4162796778    -0.0537518770
   20      C      -4.3453192778     1.1899249427    -1.3007181107
   21      H      -3.8841268005     1.2118000398     2.1336703998
   22      H      -4.8710767078     0.1081357662     1.1650847162
   23      H      -5.2830461633     1.8252784386     1.2414671213
   24      H      -2.4256824110     2.9325576268     0.9887181549
   25      H      -3.8069273011     3.5373427319     0.0649052536
   26      H      -2.3501872209     2.9913597972    -0.7753750493
   27      H      -2.0608764634    -3.3801969803    -0.0128765402
   28      H       0.5166213222    -4.1531444692    -0.0018193721
   29      H       2.9689266782    -2.5385595604     0.0100384622
   30      H       4.7899295302    -1.0801507761     0.0244553008
   31      H       2.1692417668     1.6758566260     0.0285599647
   32      H      -0.2325189298     1.2713225433     0.0281675252
   33      H      -5.1647660601     1.9006260964    -1.3569570766
   34      H      -4.7496728634     0.1825450458    -1.3485732063
   35      H      -3.6847592157     1.3455471517    -2.1512715326
 ----------------------------------------------------------------

    9    -985.5159731344      5.91e-06  Convergence criterion met
 Total energy in the final basis set =     -985.5159731344

                    Orbital Energies (a.u.)
 --------------------------------------------------------------

 Alpha MOs
 -- Occupied --
-24.7392 -24.7282 -19.2023 -19.1388 -14.3990 -10.3536 -10.3499 -10.2666
-10.2234 -10.2201 -10.1998 -10.1979 -10.1902 -10.1877 -10.1875 -10.1869
-10.1833 -10.1829 -10.1796 -10.1791  -1.2796  -1.2187  -1.1297  -1.0385
 -0.9946  -0.8618  -0.8321  -0.8042  -0.7902  -0.7427  -0.7257  -0.7065
 -0.7025  -0.6723  -0.6457  -0.6225  -0.6048  -0.5854  -0.5683  -0.5563
 -0.5245  -0.5217  -0.5134  -0.4967  -0.4871  -0.4776  -0.4687  -0.4620
 -0.4565  -0.4495  -0.4382  -0.4357  -0.4316  -0.4250  -0.4201  -0.4184
 -0.4054  -0.4028  -0.3914  -0.3911  -0.3779  -0.3760  -0.3664  -0.3635
 -0.3483  -0.3474  -0.3361  -0.3092  -0.2876  -0.2868  -0.2799  -0.2168
 -0.2087

          Ground-State Mulliken Net Atomic Charges

     Atom                 Charge (a.u.)
  ----------------------------------------
      1 C                    -0.469630
      2 C                     0.301676
      3 C                    -0.456926
      4 O                    -0.505436
      5 C                     0.822787
      6 N                    -0.615481
      7 C                     0.048957
      8 C                    -0.223584
      9 C                     0.308799
     10 C                     0.104306
     11 C                    -0.285384
     12 C                     0.200278
     13 C                    -0.292667
     14 C                     0.534352
     15 F                    -0.237238
     16 F                    -0.252138
     17 C                    -0.225160
     18 C                    -0.138830
     19 O                    -0.498596
     20 C                    -0.469292
     21 H                     0.151383
     22 H                     0.191284
     23 H                     0.148267
     24 H                     0.158578
     25 H                     0.153856
     26 H                     0.158193
     27 H                     0.183116
     28 H                     0.138932
     29 H                     0.126914
     30 H                     0.156222
     31 H                     0.134944
     32 H                     0.157322
     33 H                     0.148821
     34 H                     0.189734
     35 H                     0.151641
  ----------------------------------------
  Sum of atomic charges =     0.000000

                    Cartesian Multipole Moments
 -----------------------------------------------------------------
    Charge (ESU x 10^10)
                 0.0000
    Dipole Moment (Debye)
         X      -1.3894      Y       0.8461      Z       0.0440
       Tot       1.6273
    Quadrupole Moments (Debye-Ang)
        XX    -115.9944     XY     -14.2268     YY    -106.0934
        XZ      -0.1352     YZ      -0.0927     ZZ    -115.4392

 Total job time:  78.82s(wall), 77.52s(cpu)
        *  Thank you very much for using Q-Chem.  Have a nice day.  *
