 Q-Chem 5.2, Q-Chem, Inc., Pleasanton, CA (2019)
 Q-Chem 5.2.1 for Intel X86 EM64T Linux

User input:
--------------------------------------------------------------
$molecule
0 1
C        -4.16069346210000   -0.76022749210000   -0.29503822860000
C        -2.84164309920000   -0.88043553280000   -0.37378535040000
C        -1.87055431090000    0.16271621650000   -0.06040830690000
C        -2.20547904950000    1.51134824600000    0.06080837640000
C        -1.24914857210000    2.45639880480000    0.38011061290000
C         0.06824724610000    2.08441030820000    0.56993923290000
C         0.45740263350000    0.75334418680000    0.42485620580000
C         1.86036201910000    0.38897936800000    0.61292728640000
C         2.53351734750000   -0.50780523040000   -0.08976047230000
F         2.10100975210000   -1.21384463230000   -1.11953711310000
F         3.81636402330000   -0.78693377440000    0.12679574170000
C        -0.52980506440000   -0.18166856430000    0.12476046440000
F        -0.18812292990000   -1.48472090750000    0.06331352270000
H        -4.80963249320000   -1.58200788860000   -0.54289757360000
H        -4.64632690660000    0.14543043390000    0.02636521680000
H        -2.41103620170000   -1.82618192200000   -0.67449794490000
H        -3.22660682130000    1.81741696600000   -0.09990209930000
H        -1.53168546890000    3.49324112670000    0.48054718580000
H         0.81453618950000    2.82435539890000    0.81533201890000
H         2.41085907520000    0.92086899080000    1.37398531790000
$end

$rem
BASIS = 6-31G*
GUI = 2
METHOD = B3LYP
PRINT_ORBITALS false
MOLDEN_FORMAT false
--------------------------------------------------------------

             Standard Nuclear Orientation (Angstroms)
    I     Atom           X                Y                Z
 ----------------------------------------------------------------
    1      C       3.9191528341     1.3661695828     0.0802183158
    2      C       2.5963022573     1.3357322479    -0.0181933822
    3      C       1.7698115193     0.1331472039    -0.0274912320
    4      C       2.2794235392    -1.1463525590    -0.2485169359
    5      C       1.4545488733    -2.2548261451    -0.2259215099
    6      C       0.0983813990    -2.1151275336     0.0004325671
    7      C      -0.4625133378    -0.8529617986     0.1916465085
    8      C      -1.9024717591    -0.7308690700     0.4108281699
    9      C      -2.6839895658     0.2273131193    -0.0606032760
   10      F      -2.3423360738     1.2286595684    -0.8521666452
   11      F      -3.9937941725     0.2755098984     0.1687303115
   12      C       0.3941760790     0.2447353927     0.1862190970
   13      F      -0.1164731178     1.4640275299     0.4527371991
   14      H       4.4552076525     2.2991870968     0.0818588818
   15      H       4.5183217192     0.4764656301     0.1739190080
   16      H       2.0462454876     2.2652468260    -0.0792408770
   17      H       3.3330332107    -1.2680155008    -0.4416817187
   18      H       1.8711220421    -3.2372750493    -0.3878398517
   19      H      -0.5449752587    -2.9814979231     0.0137780844
   20      H      -2.3824556077    -1.5096466926     0.9837887502
 ----------------------------------------------------------------

    9    -684.7457559463      4.19e-06  Convergence criterion met
 Total energy in the final basis set =     -684.7457559463

                    Orbital Energies (a.u.)
 --------------------------------------------------------------

 Alpha MOs
 -- Occupied --
-24.7389 -24.7340 -24.7116 -10.3578 -10.2741 -10.2133 -10.2054 -10.2044
-10.1991 -10.1969 -10.1943 -10.1939 -10.1845  -1.2843  -1.2258  -1.2213
 -0.8782  -0.8211  -0.7889  -0.7449  -0.7342  -0.6513  -0.6374  -0.6122
 -0.5795  -0.5636  -0.5485  -0.5273  -0.5175  -0.4970  -0.4800  -0.4656
 -0.4573  -0.4429  -0.4377  -0.4365  -0.4225  -0.4138  -0.4026  -0.3901
 -0.3722  -0.3583  -0.3460  -0.3147  -0.2827  -0.2332  -0.2272

          Ground-State Mulliken Net Atomic Charges

     Atom                 Charge (a.u.)
  ----------------------------------------
      1 C                    -0.347908
      2 C                    -0.106988
      3 C                     0.100661
      4 C                    -0.185781
      5 C                    -0.126233
      6 C                    -0.183836
      7 C                     0.108430
      8 C                    -0.320822
      9 C                     0.571007
     10 F                    -0.228722
     11 F                    -0.246861
     12 C                     0.239240
     13 F                    -0.284659
     14 H                     0.148683
     15 H                     0.143065
     16 H                     0.146929
     17 H                     0.134889
     18 H                     0.133526
     19 H                     0.136208
     20 H                     0.169171
  ----------------------------------------
  Sum of atomic charges =     0.000000

                    Cartesian Multipole Moments
 -----------------------------------------------------------------
    Charge (ESU x 10^10)
                 0.0000
    Dipole Moment (Debye)
         X       1.1351      Y      -1.7040      Z       0.0897
       Tot       2.0494
    Quadrupole Moments (Debye-Ang)
        XX     -68.0208     XY       2.0799     YY     -66.2598
        XZ      -1.3661     YZ      -0.2851     ZZ     -74.0802

 Total job time:  30.19s(wall), 30.08s(cpu)
        *  Thank you very much for using Q-Chem.  Have a nice day.  *
