 Q-Chem 5.2, Q-Chem, Inc., Pleasanton, CA (2019)
 Q-Chem 5.2.1 for Intel X86 EM64T Linux

User input:
--------------------------------------------------------------
$molecule
0 1
C         3.83478139600000    1.11530623000000   -0.14013682500000
C         3.17924968580000   -0.01412931030000    0.10095478960000
C         1.73770648160000   -0.21630645620000    0.05486830510000
C         1.22404318150000   -1.49661179880000    0.26878741270000
C        -0.13340141980000   -1.72602871500000    0.23091076190000
C        -1.03945203490000   -0.69372735550000   -0.01494222770000
C        -2.47508812590000   -0.97277582050000   -0.03076302180000
C        -3.01711319930000   -2.11043157200000   -0.44509869920000
C        -0.53763078600000    0.59826528270000   -0.23022107490000
C        -1.44244878020000    1.77349976860000   -0.48906651890000
C        -1.82054878430000    2.46482327170000    0.82298308840000
C         0.82962975780000    0.81188675630000   -0.19251838500000
H         4.90877162340000    1.16219841750000   -0.08209156000000
H         3.33919745000000    2.03293887750000   -0.40699437200000
H         3.74642149240000   -0.90161334810000    0.35669925710000
H         1.90088534710000   -2.31555401840000    0.46890333680000
H        -0.51046250840000   -2.72037252260000    0.41938779950000
H        -3.12187705030000   -0.18134924560000    0.32286463110000
H        -2.42354255800000   -2.92047835090000   -0.83492116850000
H        -4.08205695780000   -2.26907176220000   -0.42585093790000
H        -2.34386188720000    1.45442779270000   -1.01385123570000
H        -0.92360469680000    2.49129031870000   -1.12842638210000
H        -2.33891146350000    1.77683022800000    1.48719271690000
H        -2.46902606160000    3.31706141760000    0.63148271770000
H        -0.92661635310000    2.81625673260000    1.33363311700000
H         1.19620116690000    1.81342827560000   -0.36246049730000
$end

$rem
BASIS = 6-31G*
GUI = 2
METHOD = B3LYP
PRINT_ORBITALS false
MOLDEN_FORMAT false
--------------------------------------------------------------

             Standard Nuclear Orientation (Angstroms)
    I     Atom           X                Y                Z
 ----------------------------------------------------------------
    1      C       3.9776929973    -0.4570412836     0.2207103144
    2      C       3.1569958109     0.5439372510    -0.0758866022
    3      C       1.7010691061     0.5192168708    -0.0491900699
    4      C       0.9964934669     1.6924975682    -0.3244694087
    5      C      -0.3805246548     1.7074921149    -0.3066126468
    6      C      -1.1172876766     0.5575144524    -0.0206945959
    7      C      -2.5789808515     0.6082464690    -0.0276698519
    8      C      -3.2980932537     1.6637222007     0.3309025613
    9      C      -0.4225977760    -0.6290964743     0.2563883801
   10      C      -1.1359648673    -1.9193390230     0.5617639230
   11      C      -1.3827450625    -2.7179664669    -0.7202874458
   12      C       0.9616408283    -0.6269585662     0.2380597910
   13      H       5.0465039650    -0.3373071442     0.1724403468
   14      H       3.6280657888    -1.4285549175     0.5253217846
   15      H       3.5818824130     1.4974229019    -0.3675259294
   16      H       1.5396290558     2.5979913328    -0.5566607815
   17      H      -0.9058140952     2.6211741803    -0.5425667802
   18      H      -3.0889457320    -0.2895251075    -0.3496736875
   19      H      -2.8441086156     2.5730923603     0.6878441660
   20      H      -4.3743646481     1.6522938219     0.2969662586
   21      H      -2.0834934083    -1.7230976780     1.0651827474
   22      H      -0.5202658433    -2.5182540668     1.2366112936
   23      H      -1.9929570953    -2.1494589426    -1.4186062811
   24      H      -1.8925375405    -3.6522361991    -0.4949949131
   25      H      -0.4377404430    -2.9466948497    -1.2081744376
   26      H       1.4779577960    -1.5501963704     0.4557501220
 ----------------------------------------------------------------

    8    -465.6734868134      4.12e-06  Convergence criterion met
 Total energy in the final basis set =     -465.6734868134

                    Orbital Energies (a.u.)
 --------------------------------------------------------------

 Alpha MOs
 -- Occupied --
-10.1900 -10.1896 -10.1890 -10.1882 -10.1873 -10.1838 -10.1817 -10.1811
-10.1797 -10.1789 -10.1770 -10.1749  -0.8670  -0.8088  -0.7857  -0.7632
 -0.7248  -0.7102  -0.6358  -0.6327  -0.5815  -0.5729  -0.5443  -0.4976
 -0.4898  -0.4561  -0.4472  -0.4413  -0.4293  -0.4200  -0.4041  -0.3970
 -0.3877  -0.3672  -0.3589  -0.3560  -0.3504  -0.3323  -0.3218  -0.3079
 -0.2660  -0.2420  -0.2092

          Ground-State Mulliken Net Atomic Charges

     Atom                 Charge (a.u.)
  ----------------------------------------
      1 C                    -0.352510
      2 C                    -0.116802
      3 C                     0.193565
      4 C                    -0.203035
      5 C                    -0.184432
      6 C                     0.104348
      7 C                    -0.132348
      8 C                    -0.339541
      9 C                     0.127101
     10 C                    -0.344575
     11 C                    -0.441609
     12 C                    -0.257473
     13 H                     0.142898
     14 H                     0.141860
     15 H                     0.125623
     16 H                     0.124691
     17 H                     0.127891
     18 H                     0.135650
     19 H                     0.144852
     20 H                     0.141788
     21 H                     0.147988
     22 H                     0.145376
     23 H                     0.152387
     24 H                     0.145018
     25 H                     0.152994
     26 H                     0.118299
  ----------------------------------------
  Sum of atomic charges =     0.000000

                    Cartesian Multipole Moments
 -----------------------------------------------------------------
    Charge (ESU x 10^10)
                 0.0000
    Dipole Moment (Debye)
         X      -0.2806      Y      -0.2941      Z      -0.0141
       Tot       0.4067
    Quadrupole Moments (Debye-Ang)
        XX     -67.1062     XY       0.3396     YY     -66.4857
        XZ      -0.1105     YZ      -1.4785     ZZ     -76.1551

 Total job time:  29.14s(wall), 28.92s(cpu)
        *  Thank you very much for using Q-Chem.  Have a nice day.  *
