 Q-Chem 5.2, Q-Chem, Inc., Pleasanton, CA (2019)
 Q-Chem 5.2.1 for Intel X86 EM64T Linux

User input:
--------------------------------------------------------------
$molecule
0 1
C        -6.34188106510000    2.06410678790000   -0.02628301180000
C        -6.25948536290000    0.73586925200000   -0.01703552810000
C        -5.03577958760000   -0.01379159800000   -0.00720756060000
C        -4.90151201480000   -1.38171320290000    0.00037821200000
C        -3.57336352490000   -1.81783209940000    0.00770682450000
C        -2.66314592110000   -0.78400161780000    0.00605225240000
C        -1.24148455630000   -0.86857142820000    0.00953838850000
C        -0.45844645780000   -2.00224205060000    0.00668529810000
C         0.91131794060000   -1.73172623070000    0.00801391330000
C         1.20540170530000   -0.38731594840000    0.01254823140000
C         2.48343925390000    0.23621458380000    0.01266732970000
C         2.77429783680000    1.58040263610000    0.02669777040000
C         4.14693908280000    1.84735545540000    0.01968053950000
C         4.93009171200000    0.71848906750000   -0.00050283820000
C         6.36384440330000    0.65991023960000   -0.01461484330000
C         7.08398337060000   -0.45893913690000   -0.04025991690000
S         3.94158812120000   -0.71447854260000   -0.00965263230000
S        -0.25274387350000    0.56381914190000    0.01548192850000
S        -3.47520225500000    0.75364254600000   -0.00451355930000
H        -7.28947250730000    2.57241638590000   -0.03377642290000
H        -5.45784695230000    2.68036309380000   -0.02670820460000
H        -7.15779153970000    0.13107335650000   -0.01699314160000
H        -5.74591841580000   -2.04860026770000    0.00034037150000
H        -3.28636799450000   -2.85357591110000    0.01424670440000
H        -0.86681323330000   -2.99629752760000    0.00280080280000
H         1.67554647880000   -2.48889731320000    0.00564483580000
H         2.00936840540000    2.33684164860000    0.04165212900000
H         4.55997329040000    2.84074453470000    0.02861063200000
H         6.85297519370000    1.62599762200000   -0.00368945520000
H         6.61310375410000   -1.42816121020000   -0.05189846190000
H         8.15909286520000   -0.43994143340000   -0.05052443260000
$end

$rem
BASIS = 6-31G*
GUI = 2
METHOD = B3LYP
PRINT_ORBITALS false
MOLDEN_FORMAT false
--------------------------------------------------------------

             Standard Nuclear Orientation (Angstroms)
    I     Atom           X                Y                Z
 ----------------------------------------------------------------
    1      C       6.3415538835    -2.0659625742    -0.0263007768
    2      C       6.2594897815    -0.7377053830    -0.0169286622
    3      C       5.0359712818     0.0122598755    -0.0070092154
    4      C       4.9020451834     1.3802142318     0.0007057988
    5      C       3.5740056901     1.8166638407     0.0080986950
    6      C       2.6635301160     0.7830606720     0.0063646119
    7      C       1.2418899607     0.8679848975     0.0098841159
    8      C       0.4591347176     2.0018511326     0.0071501970
    9      C      -0.9106971153     1.7316769908     0.0084783255
   10      C      -1.2051162569     0.3873397172     0.0128932732
   11      C      -2.4833093514    -0.2358719005     0.0129775070
   12      C      -2.7745030856    -1.5799886294     0.0268885399
   13      C      -4.1472110266    -1.8465982790     0.0198712044
   14      C      -4.9300823099    -0.7175346428    -0.0001934451
   15      C      -6.3638205924    -0.6585967501    -0.0142742749
   16      C      -7.0836808133     0.4604346580    -0.0398026805
   17      S      -3.9412213492     0.7151871077    -0.0092281266
   18      S       0.2527919945    -0.5641594565     0.0157126011
   19      S       3.4752025504    -0.7547850867    -0.0043583479
   20      H       7.2890183244    -2.5745079080    -0.0338583318
   21      H       5.4573660178    -2.6819982295    -0.0267672342
   22      H       7.1579468442    -0.1331336635    -0.0168463300
   23      H       5.7466179640     2.0468905752     0.0007146288
   24      H       3.2872687326     2.8524786221     0.0147397601
   25      H       0.8677494549     2.9958050365     0.0033505360
   26      H      -1.6747367370     2.4890389609     0.0061931736
   27      H      -2.0097621623    -2.3366198714     0.0417590282
   28      H      -4.5604929390    -2.8398850884     0.0287166082
   29      H      -6.8531922370    -1.6245630605    -0.0034296778
   30      H      -6.6125595726     1.4295402794    -0.0513598162
   31      H      -8.1587951987     0.4417061746    -0.0500496533
 ----------------------------------------------------------------

    9   -1811.4324004563      5.68e-06  Convergence criterion met
 Total energy in the final basis set =    -1811.4324004563

                    Orbital Energies (a.u.)
 --------------------------------------------------------------

 Alpha MOs
 -- Occupied --
-88.9113 -88.9073 -88.9066 -10.2304 -10.2296 -10.2291 -10.2284 -10.2204
-10.2204 -10.1997 -10.1997 -10.1969 -10.1961 -10.1946 -10.1943 -10.1940
-10.1932 -10.1830 -10.1830  -7.9730  -7.9693  -7.9685  -5.9371  -5.9336
 -5.9333  -5.9326  -5.9297  -5.9297  -5.9290  -5.9260  -5.9253  -0.9084
 -0.8944  -0.8780  -0.8078  -0.7954  -0.7678  -0.7537  -0.7433  -0.7323
 -0.7195  -0.6893  -0.6339  -0.6128  -0.5888  -0.5768  -0.5449  -0.5421
 -0.5328  -0.5301  -0.5245  -0.4867  -0.4605  -0.4572  -0.4539  -0.4219
 -0.4217  -0.4172  -0.4159  -0.3988  -0.3974  -0.3892  -0.3837  -0.3816
 -0.3751  -0.3726  -0.3629  -0.3548  -0.3401  -0.3326  -0.3237  -0.3001
 -0.2661  -0.2617  -0.2574  -0.2514  -0.2186  -0.1792

          Ground-State Mulliken Net Atomic Charges

     Atom                 Charge (a.u.)
  ----------------------------------------
      1 C                    -0.375699
      2 C                    -0.058863
      3 C                    -0.128813
      4 C                    -0.150082
      5 C                    -0.110293
      6 C                    -0.165597
      7 C                    -0.152304
      8 C                    -0.115607
      9 C                    -0.157503
     10 C                    -0.136313
     11 C                    -0.149492
     12 C                    -0.147175
     13 C                    -0.142935
     14 C                    -0.129816
     15 C                    -0.058689
     16 C                    -0.375298
     17 S                     0.259474
     18 S                     0.272010
     19 S                     0.259915
     20 H                     0.147798
     21 H                     0.156622
     22 H                     0.139516
     23 H                     0.141034
     24 H                     0.140095
     25 H                     0.142680
     26 H                     0.156281
     27 H                     0.154686
     28 H                     0.141648
     29 H                     0.139715
     30 H                     0.155203
     31 H                     0.147803
  ----------------------------------------
  Sum of atomic charges =     0.000000

                    Cartesian Multipole Moments
 -----------------------------------------------------------------
    Charge (ESU x 10^10)
                 0.0000
    Dipole Moment (Debye)
         X       0.2909      Y       0.6031      Z       0.0037
       Tot       0.6696
    Quadrupole Moments (Debye-Ang)
        XX    -111.2691     XY       6.5893     YY    -117.0567
        XZ      -0.0084     YZ      -0.0724     ZZ    -138.9402

 Total job time:  64.28s(wall), 64.04s(cpu)
        *  Thank you very much for using Q-Chem.  Have a nice day.  *
