 Q-Chem 5.2, Q-Chem, Inc., Pleasanton, CA (2019)
 Q-Chem 5.2.1 for Intel X86 EM64T Linux

User input:
--------------------------------------------------------------
$molecule
0 1
C        -4.15551821300000   -2.60671118210000    0.27478867870000
C        -2.84189099170000   -2.41559133850000    0.18937113070000
C        -2.20012292160000   -1.13628714660000    0.06835848510000
C        -0.85300311380000   -0.89473626970000   -0.02085950180000
C        -0.50704013050000    0.46531125730000   -0.13922418170000
C         0.90358806050000    0.96963477720000   -0.20162920020000
C         1.94073416020000   -0.01461426740000    0.33850442620000
C         3.32595727950000    0.62610921000000    0.39381269880000
C         4.38414420840000   -0.27068439400000    1.03857515860000
C         4.66287239600000   -1.57994191610000    0.29800988370000
C         5.19993151420000   -1.37189098730000   -1.11316366920000
C        -1.62021276760000    1.28177934960000   -0.14763271050000
C        -1.76965294420000    2.71036754150000   -0.24888509370000
C        -0.88987725440000    3.58818324850000   -0.72585233760000
S        -3.08642252410000    0.35274572430000    0.01513695430000
H        -4.58024915350000   -3.59059543350000    0.36495444330000
H        -4.84425412510000   -1.77816425240000    0.25675557540000
H        -2.16313311000000   -3.25926861550000    0.20803653560000
H        -0.13366488820000   -1.69343914380000    0.00073366600000
H         0.96170242890000    1.89846157540000    0.37316876780000
H         1.15328002990000    1.21054864210000   -1.24056918720000
H         1.97551514230000   -0.89443114100000   -0.30448046530000
H         1.65017630400000   -0.33393449630000    1.34219169580000
H         3.26376765620000    1.54891543760000    0.97713889910000
H         3.63979586270000    0.90136235230000   -0.61470815140000
H         4.06684758510000   -0.50893052480000    2.05708063660000
H         5.31741454490000    0.29388822230000    1.10894029970000
H         3.75469071410000   -2.18360393750000    0.25722639300000
H         5.39973723800000   -2.14368571370000    0.87562540200000
H         4.45077635580000   -0.91587047630000   -1.75518595760000
H         5.48439022680000   -2.32550209890000   -1.55259664020000
H         6.07679132800000   -0.72799894730000   -1.09511376380000
H        -2.73517955720000    3.07184631620000    0.08552367060000
H         0.06600484860000    3.30629390220000   -1.12632185680000
H        -1.12426682360000    4.63862096440000   -0.74962515440000
$end

$rem
BASIS = 6-31G*
GUI = 2
METHOD = B3LYP
PRINT_ORBITALS false
MOLDEN_FORMAT false
--------------------------------------------------------------

             Standard Nuclear Orientation (Angstroms)
    I     Atom           X                Y                Z
 ----------------------------------------------------------------
    1      C       4.1375832764     2.8380015953     0.0300934637
    2      C       2.8368076900     2.5679107505    -0.0367888067
    3      C       2.2664757260     1.2496351770    -0.0360856147
    4      C       0.9350309444     0.9272193962    -0.1019742322
    5      C       0.6644536599    -0.4548433285    -0.0910007569
    6      C      -0.7161953874    -1.0394046421    -0.1053105826
    7      C      -1.8083015944    -0.0668573389     0.3392322434
    8      C      -3.1567432998    -0.7744774965     0.4550223525
    9      C      -4.2656229920     0.1198778780     1.0120064336
   10      C      -4.6115976485     1.3359793248     0.1507977502
   11      C      -5.1292175936     0.9662869240    -1.2343107665
   12      C       1.8205715467    -1.2061676269    -0.0220993807
   13      C       2.0483058786    -2.6275742797     0.0123801051
   14      C       1.2202384845    -3.5934773611    -0.3792818151
   15      S       3.2330132379    -0.1869028951     0.0519030936
   16      H       4.5074928527     3.8478083173     0.0266661172
   17      H       4.8706122222     2.0504846253     0.0905744589
   18      H       2.1129124225     3.3710743889    -0.0980735412
   19      H       0.1730568011     1.6837295347    -0.1560837876
   20      H      -0.7264727209    -1.9115018285     0.5548636965
   21      H      -0.9470045551    -1.3908066798    -1.1167578637
   22      H      -1.8877526262     0.7449816849    -0.3841777036
   23      H      -1.5407871636     0.3613889518     1.3081587397
   24      H      -3.0472703359    -1.6331863068     1.1231115592
   25      H      -3.4498844663    -1.1606545210    -0.5228880811
   26      H      -3.9670599526     0.4704033941     2.0033609357
   27      H      -5.1670272687    -0.4858388710     1.1355562741
   28      H      -3.7375308911     1.9819725259     0.0529959905
   29      H      -5.3811091091     1.9105527192     0.6724624684
   30      H      -4.3529838337     0.4933752392    -1.8302943778
   31      H      -5.4630485305     1.8570328306    -1.7620615437
   32      H      -5.9696960125     0.2798728517    -1.1553320354
   33      H       3.0303920944    -2.9023169046     0.3794780776
   34      H       0.2524680633    -3.4035648280    -0.8046071916
   35      H       1.5117490596    -4.6270146343    -0.3034840497
 ----------------------------------------------------------------

    9    -943.6833902289      2.97e-06  Convergence criterion met
 Total energy in the final basis set =     -943.6833902289

                    Orbital Energies (a.u.)
 --------------------------------------------------------------

 Alpha MOs
 -- Occupied --
-88.8975 -10.2138 -10.2121 -10.1965 -10.1957 -10.1920 -10.1864 -10.1849
-10.1800 -10.1799 -10.1794 -10.1762 -10.1760 -10.1747 -10.1696  -7.9596
 -5.9235  -5.9200  -5.9166  -0.8877  -0.8163  -0.8037  -0.7822  -0.7670
 -0.7372  -0.7120  -0.6894  -0.6449  -0.6204  -0.6125  -0.5758  -0.5548
 -0.5312  -0.5171  -0.4931  -0.4813  -0.4612  -0.4559  -0.4457  -0.4377
 -0.4225  -0.4091  -0.4064  -0.3992  -0.3900  -0.3754  -0.3732  -0.3693
 -0.3618  -0.3521  -0.3445  -0.3359  -0.3324  -0.3188  -0.3149  -0.3130
 -0.3068  -0.2683  -0.2440  -0.1957

          Ground-State Mulliken Net Atomic Charges

     Atom                 Charge (a.u.)
  ----------------------------------------
      1 C                    -0.375236
      2 C                    -0.054999
      3 C                    -0.138973
      4 C                    -0.183871
      5 C                     0.181011
      6 C                    -0.348938
      7 C                    -0.270374
      8 C                    -0.258279
      9 C                    -0.252216
     10 C                    -0.252514
     11 C                    -0.445127
     12 C                    -0.195742
     13 C                    -0.095981
     14 C                    -0.349404
     15 S                     0.230773
     16 H                     0.145445
     17 H                     0.155174
     18 H                     0.135875
     19 H                     0.136283
     20 H                     0.155127
     21 H                     0.152317
     22 H                     0.141137
     23 H                     0.140619
     24 H                     0.130679
     25 H                     0.133342
     26 H                     0.127813
     27 H                     0.127184
     28 H                     0.133256
     29 H                     0.131913
     30 H                     0.145434
     31 H                     0.143534
     32 H                     0.142959
     33 H                     0.137410
     34 H                     0.150704
     35 H                     0.143666
  ----------------------------------------
  Sum of atomic charges =     0.000000

                    Cartesian Multipole Moments
 -----------------------------------------------------------------
    Charge (ESU x 10^10)
                -0.0000
    Dipole Moment (Debye)
         X      -1.2852      Y       0.1475      Z       0.0126
       Tot       1.2937
    Quadrupole Moments (Debye-Ang)
        XX     -98.7354     XY       0.3125     YY     -93.2541
        XZ       0.9855     YZ      -0.2479     ZZ    -103.5728

 Total job time:  53.52s(wall), 53.36s(cpu)
        *  Thank you very much for using Q-Chem.  Have a nice day.  *
