 Q-Chem 5.2, Q-Chem, Inc., Pleasanton, CA (2019)
 Q-Chem 5.2.1 for Intel X86 EM64T Linux

User input:
--------------------------------------------------------------
$molecule
0 1
F         2.45211572010000    3.86453336810000   -0.26757806580000
C         3.36847708990000    2.92881367720000   -0.58707257810000
F         3.38568605650000    2.87751615220000   -1.93220553910000
F         4.55548336970000    3.41732188340000   -0.20960677220000
C         3.04550028770000    1.59777672860000    0.02699977250000
C         1.85870122530000    0.98440758520000   -0.35089536260000
C         1.49326761070000   -0.23003217940000    0.21794336670000
N         0.28522837110000   -0.86112513170000   -0.11439838010000
C         0.42512581190000   -2.21463451970000   -0.49034304240000
C         1.17472933520000   -3.07691012270000    0.30544869380000
S         1.98145808910000   -2.44296910850000    1.75574418760000
C         1.32441720970000   -4.41103938950000   -0.03737120990000
C         0.73331372300000   -4.89170099350000   -1.19129145020000
C         0.03093217880000   -4.03007030970000   -2.01887375730000
C        -0.11125573750000   -2.69677876050000   -1.68030622220000
C        -0.95100169100000   -0.23938520740000    0.00874981820000
C        -1.05985240860000    1.07822434990000    0.46533768160000
C        -2.29157344120000    1.67879376050000    0.59618180730000
C        -3.47421097890000    0.99976794470000    0.29476546590000
C        -4.73411663320000    1.70472752580000    0.43396913880000
C        -5.95735683630000    1.26619552760000    0.17296322760000
F        -6.31935470780000    0.06957831500000   -0.28013305060000
F        -7.05039047170000    2.01192988860000    0.33815166840000
C        -3.36577410700000   -0.33438077730000   -0.10228584690000
C        -2.13645389110000   -0.94101135940000   -0.23482349750000
C         2.38184911100000   -0.85202589400000    1.10110815920000
C         3.56906980800000   -0.23524445990000    1.46621829260000
C         3.89762436100000    1.00306900030000    0.94789802480000
H         1.21672014820000    1.45178583300000   -1.08202833080000
H         1.89833138840000   -5.05946882060000    0.60598640190000
H         0.83738618980000   -5.93297619820000   -1.45304025150000
H        -0.40457877000000   -4.39500247100000   -2.93618395370000
H        -0.64174524870000   -2.01914084900000   -2.33179120810000
H        -0.18032969900000    1.63577237820000    0.74504798580000
H        -2.33893912560000    2.69980471390000    0.94483205840000
H        -4.67936672930000    2.72311811910000    0.79099262480000
H        -4.24956658600000   -0.91644934050000   -0.30468457980000
H        -2.10200199850000   -1.98316853720000   -0.50911602350000
H         4.22438016510000   -0.72816629380000    2.16654481520000
H         4.81136010600000    1.49428948950000    1.24106032680000
$end

$rem
BASIS = 6-31G*
GUI = 2
METHOD = B3LYP
PRINT_ORBITALS false
MOLDEN_FORMAT false
--------------------------------------------------------------

             Standard Nuclear Orientation (Angstroms)
    I     Atom           X                Y                Z
 ----------------------------------------------------------------
    1      F      -2.3802534540    -3.9557477704    -0.3510283382
    2      C      -3.3108815209    -3.0301616912    -0.6585800484
    3      F      -3.3222438491    -2.9549805052    -2.0026518300
    4      F      -4.4912277794    -3.5455070567    -0.2962176953
    5      C      -3.0137965251    -1.7050810656    -0.0190801923
    6      C      -1.8357914876    -1.0649088437    -0.3796382482
    7      C      -1.4940355931     0.1451463159     0.2127742667
    8      N      -0.2953246067     0.8025790603    -0.1018084941
    9      C      -0.4564777567     2.1600543882    -0.4542056318
   10      C      -1.2246909501     2.9949980356     0.3529044848
   11      S      -2.0276928023     2.3214404349     1.7873234246
   12      C      -1.3954669360     4.3323368399     0.0332275666
   13      C      -0.8069146853     4.8436626136    -1.1087544963
   14      C      -0.0857681484     4.0091319083    -1.9478885250
   15      C       0.0775159873     2.6725794238    -1.6324880147
   16      C       0.9507307510     0.1998506954     0.0167467354
   17      C       1.0798249496    -1.1237144683     0.4502508836
   18      C       2.3209713427    -1.7054939465     0.5768556789
   19      C       3.4933100714    -1.0011314631     0.2939160879
   20      C       4.7643807949    -1.6869398657     0.4271601567
   21      C       5.9812282971    -1.2230333600     0.1805351293
   22      F       6.3249604432    -0.0124742514    -0.2491465039
   23      F       7.0860212598    -1.9529108860     0.3381447507
   24      C       3.3640491929     0.3379040724    -0.0797636847
   25      C       2.1252080002     0.9258141746    -0.2079405007
   26      C      -2.3975304240     0.7359454692     1.1022048515
   27      C      -3.5758347643     0.0925847663     1.4499168271
   28      C      -3.8805614495    -1.1416178079     0.9077822746
   29      H      -1.1822628363    -1.5080703915    -1.1156040705
   30      H      -1.9835984062     4.9592309409     0.6850345841
   31      H      -0.9274773254     5.8875552618    -1.3523737772
   32      H       0.3480139130     4.3978607102    -2.8561981127
   33      H       0.6227700127     2.0158930496    -2.2931740227
   34      H       0.2085830622    -1.7010881951     0.7152697660
   35      H       2.3840552774    -2.7316564049     0.9074232193
   36      H       4.7252786914    -2.7123709666     0.7656048420
   37      H       4.2387543421     0.9384730235    -0.2670229760
   38      H       2.0743024660     1.9719987934    -0.4637163319
   39      H      -4.2429736529     0.5616093117     2.1554680413
   40      H      -4.7872129202    -1.6535084342     1.1872564478
 ----------------------------------------------------------------

    9   -1759.5822992914      4.89e-06  Convergence criterion met
 Total energy in the final basis set =    -1759.5822992914

                    Orbital Energies (a.u.)
 --------------------------------------------------------------

 Alpha MOs
 -- Occupied --
-88.9058 -24.7387 -24.7286 -24.7280 -24.7207 -24.7198 -14.3836 -10.4325
-10.3488 -10.2525 -10.2455 -10.2415 -10.2396 -10.2345 -10.2224 -10.2156
-10.2143 -10.2136 -10.2072 -10.2048 -10.2030 -10.2024 -10.1981 -10.1970
-10.1906 -10.1881 -10.1864 -10.1860  -7.9668  -5.9318  -5.9282  -5.9218
 -1.3076  -1.2788  -1.2186  -1.2183  -1.2116  -0.9991  -0.8925  -0.8833
 -0.8607  -0.8314  -0.8034  -0.7851  -0.7839  -0.7614  -0.7514  -0.7371
 -0.7198  -0.6833  -0.6607  -0.6496  -0.6311  -0.6243  -0.6166  -0.6066
 -0.5947  -0.5812  -0.5807  -0.5702  -0.5668  -0.5510  -0.5280  -0.5216
 -0.5128  -0.5034  -0.4990  -0.4856  -0.4715  -0.4676  -0.4616  -0.4589
 -0.4560  -0.4538  -0.4523  -0.4447  -0.4354  -0.4282  -0.4268  -0.4236
 -0.4180  -0.4160  -0.4135  -0.4067  -0.3966  -0.3960  -0.3924  -0.3867
 -0.3832  -0.3782  -0.3702  -0.3622  -0.3520  -0.3425  -0.3392  -0.3134
 -0.2928  -0.2759  -0.2675  -0.2560  -0.2520  -0.2280  -0.1900

          Ground-State Mulliken Net Atomic Charges

     Atom                 Charge (a.u.)
  ----------------------------------------
      1 F                    -0.267004
      2 C                     0.780504
      3 F                    -0.266515
      4 F                    -0.265281
      5 C                    -0.020666
      6 C                    -0.185827
      7 C                     0.269502
      8 N                    -0.693094
      9 C                     0.263752
     10 C                    -0.105502
     11 S                     0.185664
     12 C                    -0.175606
     13 C                    -0.110655
     14 C                    -0.145542
     15 C                    -0.143320
     16 C                     0.358871
     17 C                    -0.198112
     18 C                    -0.206307
     19 C                     0.199696
     20 C                    -0.298672
     21 C                     0.535749
     22 F                    -0.239353
     23 F                    -0.251986
     24 C                    -0.206154
     25 C                    -0.197003
     26 C                    -0.091510
     27 C                    -0.181932
     28 C                    -0.147217
     29 H                     0.174530
     30 H                     0.149962
     31 H                     0.138266
     32 H                     0.140263
     33 H                     0.155924
     34 H                     0.152324
     35 H                     0.130884
     36 H                     0.156915
     37 H                     0.139362
     38 H                     0.151150
     39 H                     0.155824
     40 H                     0.158117
  ----------------------------------------
  Sum of atomic charges =     0.000000

                    Cartesian Multipole Moments
 -----------------------------------------------------------------
    Charge (ESU x 10^10)
                 0.0000
    Dipole Moment (Debye)
         X      -1.3167      Y       2.5187      Z      -0.1071
       Tot       2.8441
    Quadrupole Moments (Debye-Ang)
        XX    -170.1329     XY      -4.8911     YY    -153.5227
        XZ      -7.0943     YZ      -8.0407     ZZ    -160.4090

 Total job time:  154.30s(wall), 153.91s(cpu)
        *  Thank you very much for using Q-Chem.  Have a nice day.  *
