 Q-Chem 5.2, Q-Chem, Inc., Pleasanton, CA (2019)
 Q-Chem 5.2.1 for Intel X86 EM64T Linux

User input:
--------------------------------------------------------------
$molecule
0 1
C        -3.79831251080000   -1.72096407470000   -0.52469640180000
C        -2.63043071930000   -1.92213787450000    0.07967868770000
C        -1.60074397120000   -0.93326745310000    0.23637379510000
C        -0.38613022090000   -1.09579576810000    0.85201112740000
C         0.42014099260000    0.05730265220000    0.85546407280000
C         1.79815443350000    0.08725690970000    1.44072467320000
C         2.88082223430000   -0.03354093210000    0.35959483160000
C         2.82749567460000   -1.37376836380000   -0.36864540330000
C         3.91908895010000   -1.48250833590000   -1.42569969230000
C        -0.18804654960000    1.12354749570000    0.22673940630000
C         0.32888180600000    2.45155916600000    0.04634392980000
C        -0.28008469520000    3.42195221760000   -0.63070068690000
S        -1.76710215910000    0.68767173490000   -0.36536249030000
H        -4.53304398340000   -2.50150993520000   -0.61151000080000
H        -4.05086552010000   -0.76391712850000   -0.95056557050000
H        -2.39203658110000   -2.89026196220000    0.50275634910000
H        -0.08080362720000   -2.02775322120000    1.29613070190000
H         1.90201402500000   -0.74153893890000    2.14413535300000
H         1.94705044520000    1.01752122170000    1.99385594310000
H         3.86113687680000    0.08249122320000    0.82834658300000
H         2.75789125810000    0.77357686660000   -0.36606654230000
H         1.85057438400000   -1.48831056210000   -0.84333032750000
H         2.94257010820000   -2.18352158050000    0.35609113070000
H         3.80917144970000   -0.69547789650000   -2.16871106530000
H         3.86650946570000   -2.44285215360000   -1.93323747000000
H         4.90307249270000   -1.38808033790000   -0.97074785990000
H         1.28814726890000    2.63902176140000    0.51090961860000
H        -1.23269323950000    3.26188300300000   -1.10809042870000
H         0.15413278140000    4.40105677440000   -0.72913568400000
$end

$rem
BASIS = 6-31G*
GUI = 2
METHOD = B3LYP
PRINT_ORBITALS false
MOLDEN_FORMAT false
--------------------------------------------------------------

             Standard Nuclear Orientation (Angstroms)
    I     Atom           X                Y                Z
 ----------------------------------------------------------------
    1      C       3.8683932512     1.7197873085    -0.5251204579
    2      C       2.7016096947     1.9131634001     0.0839032239
    3      C       1.6779657328     0.9182743914     0.2420859217
    4      C       0.4647050695     1.0727225144     0.8624532974
    5      C      -0.3351757285    -0.0848169698     0.8662230221
    6      C      -1.7108805049    -0.1236831353     1.4563705127
    7      C      -2.7980952592    -0.0064660621     0.3794175632
    8      C      -2.7547922912     1.3356501665    -0.3460037022
    9      C      -3.8507788743     1.4407067894    -1.3988762236
   10      C       0.2766094928    -1.1462864159     0.2329250535
   11      C      -0.2336338369    -2.4767292558     0.0514146034
   12      C       0.3782271209    -3.4422369505    -0.6299908170
   13      S       1.8510883240    -0.7003801883    -0.3638772580
   14      H       4.5984898097     2.5045708597    -0.6128277620
   15      H       4.1246818901     0.7650986067    -0.9540400829
   16      H       2.4594084376     2.8790134626     0.5100052419
   17      H       0.1558482911     2.0019900992     1.3097568474
   18      H      -1.8167692758     0.7029614910     2.1620065293
   19      H      -1.8526445328    -1.0559823846     2.0079473291
   20      H      -3.7760558160    -0.1289528615     0.8514330261
   21      H      -2.6733354445    -0.8112782369    -0.3484889880
   22      H      -1.7802382199     1.4566414726    -0.8239434123
   23      H      -2.8717136107     2.1431431668     0.3809556505
   24      H      -3.7392057075     0.6559482791    -2.1440407550
   25      H      -3.8053305502     2.4024516620    -1.9044458983
   26      H      -4.8325772529     1.3398341575    -0.9405989225
   27      H      -1.1901667821    -2.6705196534     0.5190081649
   28      H       1.3282080823    -3.2758477289    -1.1104457656
   29      H      -0.0509357033    -4.4235040645    -0.7290570581
 ----------------------------------------------------------------

    9    -865.0613927543      1.94e-06  Convergence criterion met
 Total energy in the final basis set =     -865.0613927543

                    Orbital Energies (a.u.)
 --------------------------------------------------------------

 Alpha MOs
 -- Occupied --
-88.8970 -10.2156 -10.2121 -10.1967 -10.1957 -10.1918 -10.1875 -10.1857
-10.1807 -10.1795 -10.1792 -10.1744 -10.1676  -7.9591  -5.9232  -5.9196
 -5.9158  -0.8889  -0.8134  -0.7992  -0.7731  -0.7502  -0.7150  -0.6941
 -0.6340  -0.6258  -0.5814  -0.5688  -0.5476  -0.5109  -0.4940  -0.4740
 -0.4572  -0.4384  -0.4311  -0.4269  -0.4221  -0.4031  -0.3886  -0.3857
 -0.3794  -0.3622  -0.3559  -0.3531  -0.3340  -0.3327  -0.3253  -0.3194
 -0.3148  -0.2675  -0.2436  -0.1954

          Ground-State Mulliken Net Atomic Charges

     Atom                 Charge (a.u.)
  ----------------------------------------
      1 C                    -0.374549
      2 C                    -0.055037
      3 C                    -0.135740
      4 C                    -0.179562
      5 C                     0.155765
      6 C                    -0.349128
      7 C                    -0.246126
      8 C                    -0.254640
      9 C                    -0.441483
     10 C                    -0.201422
     11 C                    -0.055782
     12 C                    -0.376762
     13 S                     0.239286
     14 H                     0.146254
     15 H                     0.156729
     16 H                     0.137226
     17 H                     0.133110
     18 H                     0.142039
     19 H                     0.145760
     20 H                     0.129235
     21 H                     0.140573
     22 H                     0.150588
     23 H                     0.125331
     24 H                     0.144850
     25 H                     0.142589
     26 H                     0.140429
     27 H                     0.138618
     28 H                     0.156975
     29 H                     0.144875
  ----------------------------------------
  Sum of atomic charges =     0.000000

                    Cartesian Multipole Moments
 -----------------------------------------------------------------
    Charge (ESU x 10^10)
                 0.0000
    Dipole Moment (Debye)
         X      -0.9288      Y       0.5437      Z       0.4901
       Tot       1.1826
    Quadrupole Moments (Debye-Ang)
        XX     -84.1911     XY       2.8295     YY     -80.9994
        XZ      -3.5290     YZ       2.3814     ZZ     -88.3161

 Total job time:  42.40s(wall), 41.87s(cpu)
        *  Thank you very much for using Q-Chem.  Have a nice day.  *
