 Q-Chem 5.2, Q-Chem, Inc., Pleasanton, CA (2019)
 Q-Chem 5.2.1 for Intel X86 EM64T Linux

User input:
--------------------------------------------------------------
$molecule
0 1
C         2.66978320570000    4.52458795730000    2.01925857870000
C         1.71729053000000    3.70409611910000    1.58469636070000
C         1.78113118320000    2.93465048110000    0.37350234570000
C         0.82625289220000    2.08194924230000   -0.11703027620000
C         1.16356687220000    1.45313280780000   -1.33150080270000
C         0.23441394770000    0.48457399360000   -1.99311614760000
C         0.56497764380000   -0.96866249670000   -1.62406768910000
C         0.33197662420000   -1.25569843110000   -0.14320461510000
C         0.60464440570000   -2.71884137910000    0.19663450870000
C         0.50743553040000   -3.02447192460000    1.69270128360000
C        -0.85702625860000   -2.73366415580000    2.32054620360000
C        -1.98925187340000   -3.55113415830000    1.70324439190000
C        -3.31843635890000   -3.39214780630000    2.44285778180000
C        -3.87713465800000   -1.96667350570000    2.46415919430000
C        -4.07429758220000   -1.32586436760000    1.08955770340000
C        -5.06531058180000   -2.07441513850000    0.20159977310000
C        -5.31397347120000   -1.33348822060000   -1.10696482080000
C         2.40935057210000    1.83335807510000   -1.78661376570000
C         3.17719198790000    1.50828973890000   -2.96039239260000
C         2.95207723860000    0.56341573490000   -3.87104076400000
S         3.14595247320000    2.98022150000000   -0.69477792300000
H         2.56681562890000    5.07728563320000    2.93604577230000
H         3.58319320820000    4.66552045850000    1.46507074880000
H         0.80473418820000    3.57310913380000    2.15310313790000
H        -0.11051741670000    1.91352171880000    0.38650428410000
H         0.27952298890000    0.61111939570000   -3.07614259220000
H        -0.78680389280000    0.70547068600000   -1.67295304910000
H         1.60832191080000   -1.17854674120000   -1.86817577330000
H        -0.06199550930000   -1.63513742530000   -2.22228775920000
H        -0.70097848980000   -1.00536309560000    0.10561971660000
H         0.98541764580000   -0.61887919820000    0.45719356960000
H         1.61393354510000   -2.97355763700000   -0.13763314690000
H        -0.08850064860000   -3.35585458990000   -0.35615294260000
H         1.26283932770000   -2.43523766020000    2.21917659220000
H         0.74843254110000   -4.07970190750000    1.84550217430000
H        -1.07475272010000   -1.66944408310000    2.23074690810000
H        -0.79836034590000   -2.96525431000000    3.38744533160000
H        -1.71001462470000   -4.60808765030000    1.72378826260000
H        -2.12314038590000   -3.27008144290000    0.65885844150000
H        -3.18725226830000   -3.71853863370000    3.47804304190000
H        -4.05353172540000   -4.05775289140000    1.98555122590000
H        -3.21188403950000   -1.33087705790000    3.05218416610000
H        -4.84080706890000   -1.98918245150000    2.98004591280000
H        -3.11530508060000   -1.25168865440000    0.57356611060000
H        -4.44028553690000   -0.30615053030000    1.23895622240000
H        -6.01013167990000   -2.19315656620000    0.73720205790000
H        -4.68156928410000   -3.07121079660000   -0.02172216750000
H        -5.72306768770000   -0.34358915270000   -0.91506642640000
H        -6.01809860390000   -1.88009576940000   -1.73017451220000
H        -4.38507589770000   -1.21657332250000   -1.66189889880000
H         4.05525338390000    2.13313385520000   -3.07847230480000
H         2.12737755720000   -0.12245890400000   -3.82814248990000
H         3.61970675680000    0.44725959420000   -4.70769758410000
$end

$rem
BASIS = 6-31G*
GUI = 2
METHOD = B3LYP
PRINT_ORBITALS false
MOLDEN_FORMAT false
--------------------------------------------------------------

             Standard Nuclear Orientation (Angstroms)
    I     Atom           X                Y                Z
 ----------------------------------------------------------------
    1      C      -4.4080827321    -3.6751550506    -0.2394353727
    2      C      -3.3055781404    -2.9929681739    -0.5367536628
    3      C      -3.1862351883    -1.5620480681    -0.5001740042
    4      C      -2.0763554622    -0.8157855779    -0.8014604058
    5      C      -2.2474874244     0.5763316207    -0.6716411232
    6      C      -1.1286346368     1.5295732278    -0.9521140747
    7      C      -0.3733675169     1.9176961385     0.3270644126
    8      C       0.3593361977     0.7312079916     0.9475687966
    9      C       1.1560243768     1.1444746919     2.1825279922
   10      C       1.8038633096    -0.0345193571     2.9114677294
   11      C       2.7931936541    -0.8442380908     2.0711728899
   12      C       3.9795265985    -0.0190099900     1.5783582175
   13      C       5.0536444095    -0.8618106661     0.8891601534
   14      C       4.5849177410    -1.6000599311    -0.3677638117
   15      C       3.9773628357    -0.7114688895    -1.4541899835
   16      C       4.9466470757     0.3316764952    -2.0048623693
   17      C       4.3318751765     1.1106406824    -3.1617623364
   18      C      -3.5221754457     0.9085012257    -0.2611415597
   19      C      -4.1900304811     2.1605710226    -0.0176317996
   20      C      -3.6704568715     3.3841869962     0.0568745997
   21      S      -4.4987476796    -0.5235234123    -0.0476100823
   22      H      -4.4395370632    -4.7491707808    -0.2850055101
   23      H      -5.3137566585    -3.1731918779     0.0590468976
   24      H      -2.4030579450    -3.5120155383    -0.8351662331
   25      H      -1.1493678146    -1.2624284178    -1.1187261784
   26      H      -1.5200067917     2.4253070415    -1.4373806153
   27      H      -0.4288131558     1.0535326304    -1.6433599648
   28      H      -1.0767827320     2.3237411832     1.0568190763
   29      H       0.3505080600     2.7002863930     0.0847669505
   30      H       1.0311152107     0.3029428110     0.2013252113
   31      H      -0.3650829791    -0.0370018617     1.2269831159
   32      H       0.4824288888     1.6477277580     2.8813021150
   33      H       1.9221850173     1.8674207234     1.8958979660
   34      H       1.0146397430    -0.7063568806     3.2589855993
   35      H       2.3218664982     0.3485434685     3.7945722286
   36      H       2.2686436682    -1.2847801708     1.2233503398
   37      H       3.1690852856    -1.6672010413     2.6850025908
   38      H       4.4362357188     0.4844272793     2.4348124610
   39      H       3.6342514440     0.7542337071     0.8924004720
   40      H       5.4267613231    -1.6059144077     1.5979916927
   41      H       5.8932240096    -0.2130287379     0.6308721012
   42      H       3.8492164903    -2.3558692937    -0.0848066541
   43      H       5.4441620153    -2.1285054913    -0.7893736332
   44      H       3.0893960187    -0.2076225948    -1.0680943716
   45      H       3.6517657490    -1.3543984361    -2.2768147739
   46      H       5.8569324374    -0.1671911561    -2.3456964468
   47      H       5.2257980140     1.0303449727    -1.2145024710
   48      H       4.0676501873     0.4405488700    -3.9773880804
   49      H       5.0317279899     1.8519813025    -3.5406850976
   50      H       3.4295097589     1.6259244118    -2.8382025155
   51      H      -5.2582773469     2.0490208678     0.1299149631
   52      H      -2.6230525862     3.5951974722    -0.0471094801
   53      H      -4.3073304356     4.2330926053     0.2384438353
 ----------------------------------------------------------------

    9   -1179.5595624197      2.33e-06  Convergence criterion met
 Total energy in the final basis set =    -1179.5595624197

                    Orbital Energies (a.u.)
 --------------------------------------------------------------

 Alpha MOs
 -- Occupied --
-88.8988 -10.2156 -10.2147 -10.1979 -10.1972 -10.1921 -10.1862 -10.1857
-10.1809 -10.1803 -10.1788 -10.1744 -10.1726 -10.1722 -10.1714 -10.1712
-10.1710 -10.1709 -10.1708 -10.1702 -10.1684  -7.9609  -5.9248  -5.9214
 -5.9178  -0.8893  -0.8190  -0.8112  -0.8017  -0.7875  -0.7719  -0.7611
 -0.7370  -0.7175  -0.7032  -0.6811  -0.6515  -0.6270  -0.6216  -0.5979
 -0.5877  -0.5866  -0.5599  -0.5380  -0.5335  -0.5146  -0.4949  -0.4815
 -0.4753  -0.4590  -0.4565  -0.4495  -0.4428  -0.4350  -0.4335  -0.4216
 -0.4190  -0.4159  -0.4017  -0.3966  -0.3930  -0.3860  -0.3796  -0.3766
 -0.3714  -0.3628  -0.3581  -0.3526  -0.3514  -0.3444  -0.3371  -0.3352
 -0.3328  -0.3231  -0.3202  -0.3166  -0.3146  -0.3084  -0.3027  -0.3016
 -0.2974  -0.2688  -0.2444  -0.1970

          Ground-State Mulliken Net Atomic Charges

     Atom                 Charge (a.u.)
  ----------------------------------------
      1 C                    -0.374414
      2 C                    -0.054880
      3 C                    -0.137656
      4 C                    -0.177592
      5 C                     0.181194
      6 C                    -0.361009
      7 C                    -0.255405
      8 C                    -0.272970
      9 C                    -0.258677
     10 C                    -0.257552
     11 C                    -0.259631
     12 C                    -0.259465
     13 C                    -0.260917
     14 C                    -0.260331
     15 C                    -0.259753
     16 C                    -0.250896
     17 C                    -0.441545
     18 C                    -0.192497
     19 C                    -0.089188
     20 C                    -0.355654
     21 S                     0.230761
     22 H                     0.146373
     23 H                     0.155812
     24 H                     0.137036
     25 H                     0.134675
     26 H                     0.149789
     27 H                     0.141268
     28 H                     0.147366
     29 H                     0.129003
     30 H                     0.136005
     31 H                     0.146609
     32 H                     0.129590
     33 H                     0.131990
     34 H                     0.127511
     35 H                     0.125528
     36 H                     0.137080
     37 H                     0.127032
     38 H                     0.127007
     39 H                     0.135723
     40 H                     0.126833
     41 H                     0.130833
     42 H                     0.131234
     43 H                     0.126623
     44 H                     0.136435
     45 H                     0.125708
     46 H                     0.130902
     47 H                     0.137308
     48 H                     0.141997
     49 H                     0.141680
     50 H                     0.139535
     51 H                     0.136497
     52 H                     0.152693
     53 H                     0.144402
  ----------------------------------------
  Sum of atomic charges =     0.000000

                    Cartesian Multipole Moments
 -----------------------------------------------------------------
    Charge (ESU x 10^10)
                -0.0000
    Dipole Moment (Debye)
         X       1.0548      Y       0.1085      Z      -0.1222
       Tot       1.0674
    Quadrupole Moments (Debye-Ang)
        XX    -141.0120     XY      -0.8285     YY    -133.4046
        XZ      -2.1770     YZ       1.2364     ZZ    -143.3192

 Total job time:  127.93s(wall), 127.57s(cpu)
        *  Thank you very much for using Q-Chem.  Have a nice day.  *
