 Q-Chem 5.2, Q-Chem, Inc., Pleasanton, CA (2019)
 Q-Chem 5.2.1 for Intel X86 EM64T Linux

User input:
--------------------------------------------------------------
$molecule
0 1
C        -4.37387175860000   -0.03964992730000    0.00240090260000
C        -3.22893081310000    0.63314057300000    0.00085784880000
C        -1.88779311880000    0.06579679710000   -0.02487540400000
C        -1.63192145570000   -1.30677262210000   -0.06778284400000
C        -0.34092283330000   -1.78478615580000   -0.09942289100000
C         0.76452183840000   -0.93060368640000   -0.09629935200000
C         2.12523371110000   -1.45647190180000   -0.12314501880000
C         2.48363515850000   -2.65089216680000    0.33235279720000
C         0.51611658670000    0.45216008460000   -0.05006801230000
C         1.62216094490000    1.45731400980000   -0.05804335700000
O         2.57165865760000    1.42737657190000   -0.78959615430000
O         1.47634118380000    2.46471426240000    0.82773945720000
C        -0.79014768100000    0.92485430950000   -0.00874996660000
H        -5.32072668570000    0.47157312760000    0.02196688410000
H        -4.42043486970000   -1.11475570090000   -0.01610280380000
H        -3.25908156700000    1.71608482650000    0.01927993560000
H        -2.45298695750000   -2.00607893830000   -0.08582875180000
H        -0.17511782570000   -2.84965598770000   -0.15424460530000
H         2.87251602930000   -0.79244722940000   -0.53166767710000
H         1.78562289990000   -3.33651226240000    0.78430128450000
H         3.50686400330000   -2.98100792910000    0.28538000630000
H         0.68404778590000    2.36184745690000    1.37209000640000
H        -0.96985897740000    1.99340442440000   -0.00338527750000
$end

$rem
BASIS = 6-31G*
GUI = 2
METHOD = B3LYP
PRINT_ORBITALS false
MOLDEN_FORMAT false
--------------------------------------------------------------

             Standard Nuclear Orientation (Angstroms)
    I     Atom           X                Y                Z
 ----------------------------------------------------------------
    1      C       4.3312849319    -0.0966258454     0.0164789441
    2      C       3.2008052474     0.5999990806     0.0328680360
    3      C       1.8479198568     0.0607130742     0.0408178013
    4      C       1.5630035415    -1.3067795124     0.0475174834
    5      C       0.2621153333    -1.7580001873     0.0638038737
    6      C      -0.8250338069    -0.8808005512     0.0803240141
    7      C      -2.1966163325    -1.3782484096     0.0904172726
    8      C      -2.5788688463    -2.5526160328    -0.3967308862
    9      C      -0.5473575625     0.4971248841     0.0705490339
   10      C      -1.6319499018     1.5249368379     0.1020797657
   11      O      -2.5839319989     1.4961872965     0.8304445112
   12      O      -1.4623885714     2.5516178608    -0.7569341445
   13      C       0.7687078657     0.9429564525     0.0444847015
   14      H       5.2887746263     0.3947624403     0.0123400708
   15      H       4.3550846009    -1.1725952780     0.0071896616
   16      H       3.2538673109     1.6821756242     0.0426170479
   17      H       2.3690660387    -2.0235526033     0.0492849037
   18      H       0.0737085538    -2.8201815394     0.0906020139
   19      H      -2.9308630517    -0.7093439757     0.5143264665
   20      H      -1.8942142439    -3.2409359150    -0.8647237055
   21      H      -3.6089685593    -2.8620902781    -0.3606698096
   22      H      -0.6709083686     2.4461204976    -1.3019637983
   23      H       0.9709556958     2.0072410260     0.0672539747
 ----------------------------------------------------------------

    9    -575.6032690103      6.51e-06  Convergence criterion met
 Total energy in the final basis set =     -575.6032690103

                    Orbital Energies (a.u.)
 --------------------------------------------------------------

 Alpha MOs
 -- Occupied --
-19.1967 -19.1355 -10.3219 -10.2159 -10.2152 -10.2128 -10.2108 -10.2052
-10.2039 -10.2030 -10.1932 -10.1904 -10.1863  -1.1063  -1.0239  -0.8866
 -0.8226  -0.7837  -0.7722  -0.7307  -0.6612  -0.6416  -0.6231  -0.5928
 -0.5771  -0.5298  -0.5058  -0.4927  -0.4764  -0.4557  -0.4514  -0.4405
 -0.4353  -0.4258  -0.4001  -0.3936  -0.3914  -0.3743  -0.3583  -0.3559
 -0.3302  -0.3162  -0.2820  -0.2756  -0.2670  -0.2257

          Ground-State Mulliken Net Atomic Charges

     Atom                 Charge (a.u.)
  ----------------------------------------
      1 C                    -0.350593
      2 C                    -0.114707
      3 C                     0.188897
      4 C                    -0.174912
      5 C                    -0.192776
      6 C                     0.127981
      7 C                    -0.134478
      8 C                    -0.341878
      9 C                    -0.004484
     10 C                     0.542570
     11 O                    -0.438080
     12 O                    -0.563736
     13 C                    -0.284987
     14 H                     0.151327
     15 H                     0.147136
     16 H                     0.130735
     17 H                     0.135721
     18 H                     0.140728
     19 H                     0.185904
     20 H                     0.142181
     21 H                     0.152097
     22 H                     0.414009
     23 H                     0.141346
  ----------------------------------------
  Sum of atomic charges =     0.000000

                    Cartesian Multipole Moments
 -----------------------------------------------------------------
    Charge (ESU x 10^10)
                 0.0000
    Dipole Moment (Debye)
         X       3.7313      Y      -1.6352      Z      -1.8261
       Tot       4.4645
    Quadrupole Moments (Debye-Ang)
        XX     -76.7035     XY       8.3116     YY     -70.7355
        XZ       2.5789     YZ      -2.4035     ZZ     -77.6017

 Total job time:  31.43s(wall), 31.32s(cpu)
        *  Thank you very much for using Q-Chem.  Have a nice day.  *
