 Q-Chem 5.2, Q-Chem, Inc., Pleasanton, CA (2019)
 Q-Chem 5.2.1 for Intel X86 EM64T Linux

User input:
--------------------------------------------------------------
$molecule
0 1
C        -2.91958693630000    0.77476345500000   -0.16950741500000
C        -2.32630553610000   -0.37186363180000    0.13749660970000
C        -0.90273761800000   -0.62505099780000    0.08161615690000
N        -0.46148847540000   -1.86728018390000   -0.04964538030000
N         0.87414419270000   -1.77973612010000   -0.11197294930000
C         1.31365786120000   -0.50350836190000   -0.02311974130000
N         2.65497644060000   -0.20579038430000    0.06965113760000
C         0.18408458490000    0.29800411420000    0.10743661890000
C         0.12361108990000    1.73208354160000    0.30239336470000
C         0.93481823060000    2.62417629970000   -0.25326337330000
H        -3.98915397840000    0.88508194420000   -0.10946118010000
H        -2.36779169960000    1.63461796240000   -0.50889871900000
H        -2.91229047500000   -1.23518664150000    0.42325972760000
H         1.42915286520000   -2.61646029910000   -0.18904590440000
H         3.27700347440000   -0.81172092740000   -0.44295861880000
H         2.86452934720000    0.77426752830000   -0.03333802930000
H        -0.66523679880000    2.06807306380000    0.96436116500000
H         1.70369200770000    2.35002124960000   -0.95810522010000
H         0.84028533570000    3.67681436900000   -0.04916013470000
$end

$rem
BASIS = 6-31G*
GUI = 2
METHOD = B3LYP
PRINT_ORBITALS false
MOLDEN_FORMAT false
--------------------------------------------------------------

             Standard Nuclear Orientation (Angstroms)
    I     Atom           X                Y                Z
 ----------------------------------------------------------------
    1      C       2.9535615577    -0.5681352322    -0.2077144210
    2      C       2.3031517496     0.5467380758     0.1005266465
    3      C       0.8670516281     0.7207277937     0.0671185056
    4      N       0.3558274357     1.9356128320    -0.0661778428
    5      N      -0.9737980740     1.7741819138    -0.1048996158
    6      C      -1.3407060981     0.4765265401     0.0013711760
    7      N      -2.6618249917     0.1062821289     0.1194470268
    8      C      -0.1666214591    -0.2604630525     0.1187364178
    9      C      -0.0238944943    -1.6872961825     0.3237369379
   10      C      -0.7938315892    -2.6274593948    -0.2109881585
   11      H       4.0284387266    -0.6189174595    -0.1651748640
   12      H       2.4444397156    -1.4599601764    -0.5309131730
   13      H       2.8453193348     1.4434413815     0.3694932214
   14      H      -1.5753217211     2.5784034068    -0.1789219829
   15      H      -3.3248014947     0.6725986465    -0.3870961347
   16      H      -2.8186944516    -0.8846776688     0.0276681998
   17      H       0.7932318352    -1.9736157294     0.9746570543
   18      H      -1.5883226819    -2.4021517819    -0.9046381343
   19      H      -0.6379876206    -3.6714900276    -0.0003837891
 ----------------------------------------------------------------

    9    -436.3470593106      4.46e-06  Convergence criterion met
 Total energy in the final basis set =     -436.3470593106

                    Orbital Energies (a.u.)
 --------------------------------------------------------------

 Alpha MOs
 -- Occupied --
-14.4008 -14.3572 -14.3304 -10.2576 -10.1982 -10.1888 -10.1807 -10.1731
-10.1720 -10.1699  -1.0465  -0.9283  -0.8289  -0.7897  -0.7553  -0.7340
 -0.6265  -0.6258  -0.5672  -0.5595  -0.5287  -0.5001  -0.4837  -0.4596
 -0.4440  -0.4262  -0.4151  -0.4039  -0.3611  -0.3470  -0.3335  -0.3019
 -0.2841  -0.2675  -0.2144  -0.1936

          Ground-State Mulliken Net Atomic Charges

     Atom                 Charge (a.u.)
  ----------------------------------------
      1 C                    -0.365008
      2 C                    -0.084590
      3 C                     0.265218
      4 N                    -0.361081
      5 N                    -0.477823
      6 C                     0.501751
      7 N                    -0.798364
      8 C                    -0.023116
      9 C                    -0.116428
     10 C                    -0.373963
     11 H                     0.139783
     12 H                     0.150695
     13 H                     0.139371
     14 H                     0.333651
     15 H                     0.324164
     16 H                     0.339824
     17 H                     0.144024
     18 H                     0.122276
     19 H                     0.139615
  ----------------------------------------
  Sum of atomic charges =     0.000000

                    Cartesian Multipole Moments
 -----------------------------------------------------------------
    Charge (ESU x 10^10)
                -0.0000
    Dipole Moment (Debye)
         X      -3.3445      Y      -0.3778      Z      -0.8188
       Tot       3.4639
    Quadrupole Moments (Debye-Ang)
        XX     -46.6517     XY      -5.5879     YY     -56.0593
        XZ       5.2305     YZ      -0.5422     ZZ     -61.9512

 Total job time:  19.06s(wall), 18.99s(cpu)
        *  Thank you very much for using Q-Chem.  Have a nice day.  *
