 Q-Chem 5.2, Q-Chem, Inc., Pleasanton, CA (2019)
 Q-Chem 5.2.1 for Intel X86 EM64T Linux

User input:
--------------------------------------------------------------
$molecule
0 1
C         3.54698119730000   -1.20220562330000    0.00029973640000
C         2.41971193210000   -1.90728852020000   -0.00059996470000
C         1.07613146070000   -1.36328104640000   -0.00016280310000
C        -0.01724745470000   -2.21078803850000    0.00025323640000
C        -1.34269750300000   -1.76572747800000    0.00067637320000
C        -1.67620195490000   -0.42595491180000    0.00060600980000
C        -3.02703010050000    0.10386490810000    0.00097677260000
C        -4.15187574230000   -0.60484389970000   -0.00149736150000
C        -0.58572983090000    0.48125615690000    0.00029758280000
N        -0.67059703480000    1.81127443960000    0.00028320230000
S         0.81223841330000    2.42634033780000   -0.00019044640000
N         1.63797283050000    1.04721171000000   -0.00040272000000
C         0.78143278080000    0.02555319610000   -0.00012211400000
H         4.50841545020000   -1.68733431880000   -0.00014347190000
H         3.53561516640000   -0.12677559790000    0.00141543700000
H         2.46187922840000   -2.99031919860000   -0.00166724100000
H         0.16099754950000   -3.27718492820000    0.00036155800000
H        -2.12725246930000   -2.50655746580000    0.00112962690000
H        -3.07084510220000    1.18482748590000    0.00309733190000
H        -4.16393427290000   -1.68156451930000   -0.00411820000000
H        -5.11384640560000   -0.12243596800000   -0.00102538950000
$end

$rem
BASIS = 6-31G*
GUI = 2
METHOD = B3LYP
PRINT_ORBITALS false
MOLDEN_FORMAT false
--------------------------------------------------------------

             Standard Nuclear Orientation (Angstroms)
    I     Atom           X                Y                Z
 ----------------------------------------------------------------
    1      C       3.5868338998     1.0793479399    -0.0002869739
    2      C       2.4727231615     1.8050442980     0.0005823760
    3      C       1.1193645881     1.2858399230     0.0001412195
    4      C       0.0417579426     2.1533129446    -0.0003080621
    5      C      -1.2916534458     1.7327052925    -0.0007372694
    6      C      -1.6497425448     0.3992931502    -0.0006398933
    7      C      -3.0100866284    -0.1055926702    -0.0010150706
    8      C      -4.1217074844     0.6236844473     0.0014286581
    9      C      -0.5761402734    -0.5278203901    -0.0002968723
   10      N      -0.6854547794    -1.8560528290    -0.0002526264
   11      S       0.7858175726    -2.4982869449     0.0002536848
   12      N       1.6367772100    -1.1345784701     0.0004441272
   13      C       0.7991723577    -0.0973393141     0.0001291642
   14      H       4.5570279967     1.5467119177     0.0001568651
   15      H       3.5556905276     0.0043088376    -0.0013778167
   16      H       2.5348023808     2.8871162706     0.0016249994
   17      H       0.2395859386     3.2162511773    -0.0004389647
   18      H      -2.0624503786     2.4878394721    -0.0012174606
   19      H      -3.0737752253    -1.1855666121    -0.0031110454
   20      H      -4.1139609929     1.7004447846     0.0040243187
   21      H      -5.0923878604     0.1590506380     0.0009559855
 ----------------------------------------------------------------

   10    -893.5140902332      3.37e-06  Convergence criterion met
 Total energy in the final basis set =     -893.5140902332

                    Orbital Energies (a.u.)
 --------------------------------------------------------------

 Alpha MOs
 -- Occupied --
-88.9749 -14.3637 -14.3626 -10.2388 -10.2381 -10.2104 -10.2099 -10.2038
-10.2028 -10.1932 -10.1913 -10.1864 -10.1761  -8.0310  -5.9962  -5.9904
 -5.9886  -1.0304  -0.8938  -0.8733  -0.8097  -0.7719  -0.7693  -0.7224
 -0.6598  -0.6317  -0.6112  -0.5835  -0.5442  -0.5132  -0.5059  -0.4843
 -0.4607  -0.4587  -0.4443  -0.4247  -0.4027  -0.3866  -0.3818  -0.3737
 -0.3724  -0.3592  -0.3511  -0.3128  -0.2954  -0.2895  -0.2733  -0.2676
 -0.2093

          Ground-State Mulliken Net Atomic Charges

     Atom                 Charge (a.u.)
  ----------------------------------------
      1 C                    -0.355762
      2 C                    -0.116764
      3 C                     0.209421
      4 C                    -0.227145
      5 C                    -0.217102
      6 C                     0.191488
      7 C                    -0.104009
      8 C                    -0.348716
      9 C                     0.157167
     10 N                    -0.564653
     11 S                     0.582647
     12 N                    -0.580468
     13 C                     0.190671
     14 H                     0.139675
     15 H                     0.189293
     16 H                     0.125143
     17 H                     0.137654
     18 H                     0.135786
     19 H                     0.162012
     20 H                     0.142933
     21 H                     0.150729
  ----------------------------------------
  Sum of atomic charges =     0.000000

                    Cartesian Multipole Moments
 -----------------------------------------------------------------
    Charge (ESU x 10^10)
                -0.0000
    Dipole Moment (Debye)
         X      -0.4924      Y       1.2587      Z      -0.0003
       Tot       1.3516
    Quadrupole Moments (Debye-Ang)
        XX     -77.4868     XY      -2.1663     YY     -73.1309
        XZ      -0.0018     YZ       0.0066     ZZ     -84.4171

 Total job time:  36.99s(wall), 36.69s(cpu)
        *  Thank you very much for using Q-Chem.  Have a nice day.  *
