 Q-Chem 5.2, Q-Chem, Inc., Pleasanton, CA (2019)
 Q-Chem 5.2.1 for Intel X86 EM64T Linux

User input:
--------------------------------------------------------------
$molecule
0 1
C         5.69123813580000   -1.21027920540000    0.55550026140000
C         4.60067484130000   -1.68257321990000   -0.03706461120000
C         3.31482002070000   -1.01200310360000   -0.16879491450000
C         2.27814254550000   -1.65381436690000   -0.84273452730000
C         1.04636979450000   -1.05051367150000   -1.00743556470000
C         0.79604403060000    0.21548200380000   -0.48933719060000
O        -0.35712337790000    0.91175837480000   -0.68220911970000
C        -1.50068874000000    0.27782495360000   -1.19720926990000
C        -2.16669357040000   -0.64649541940000   -0.15343954240000
C        -3.42573033680000   -1.32151699490000   -0.71533163550000
C        -4.58887164120000   -0.33503602670000   -0.80482772530000
C        -4.79189338390000    0.31775797410000    0.56022443450000
C        -3.48131849410000    0.95748706170000    1.01610614560000
O        -2.42352571590000    0.02321631410000    1.06342199890000
C         1.81845818440000    0.87422372400000    0.22544248160000
C         1.63683465660000    2.18332219860000    0.85324897720000
C         0.51183248290000    2.65300640720000    1.37395637040000
C         3.05428480040000    0.25553539820000    0.34845378970000
H         6.59867079810000   -1.78791383880000    0.59906024760000
H         5.72992365260000   -0.23944690020000    1.01849656720000
H         4.63616133330000   -2.66969961420000   -0.48318057990000
H         2.43849408170000   -2.64011684890000   -1.25499068370000
H         0.28234136120000   -1.58257218850000   -1.55351767660000
H        -1.28125362410000   -0.29264179440000   -2.10799978550000
H        -2.16732060620000    1.10090658350000   -1.46371709430000
H        -1.43407152280000   -1.41231747570000    0.13024724580000
H        -3.70497264260000   -2.13421871670000   -0.04153127780000
H        -3.20445971900000   -1.74974286110000   -1.69406483230000
H        -5.49504359880000   -0.86021453830000   -1.11260286790000
H        -4.37749058760000    0.43123519520000   -1.55357217160000
H        -5.08730145380000   -0.44309260760000    1.28539152140000
H        -5.57291017050000    1.07755203010000    0.51650536360000
H        -3.56621580790000    1.33357812500000    2.03833739370000
H        -3.22765487920000    1.80058486350000    0.35795666090000
H         2.54530859970000    2.77025087500000    0.93041726180000
H        -0.40417148540000    2.09034567530000    1.35964891370000
H         0.47883980190000    3.61919655140000    1.85005911910000
H         3.82964463640000    0.77974223180000    0.88641710990000
$end

$rem
BASIS = 6-31G*
GUI = 2
METHOD = B3LYP
PRINT_ORBITALS false
MOLDEN_FORMAT false
--------------------------------------------------------------

             Standard Nuclear Orientation (Angstroms)
    I     Atom           X                Y                Z
 ----------------------------------------------------------------
    1      C       5.8344272966     0.3870392263    -0.7261516105
    2      C       4.7826159229     1.1582464119    -0.4762408769
    3      C       3.4389824231     0.7206750604    -0.1246443699
    4      C       2.4550675353     1.6753138049     0.1231314319
    5      C       1.1709247749     1.3084212245     0.4763020370
    6      C       0.8139316034    -0.0315697857     0.5802920907
    7      O      -0.4008748916    -0.4736250012     1.0052953895
    8      C      -1.4894945317     0.4089101932     1.1095900898
    9      C      -2.0521083862     0.7965443635    -0.2762638818
   10      C      -3.2526678630     1.7455575350    -0.1555105226
   11      C      -4.5023402424     0.9998939585     0.3096310899
   12      C      -4.7431693102    -0.1902218770    -0.6157612013
   13      C      -3.4896974033    -1.0630946669    -0.6556266382
   14      O      -2.3503403511    -0.3364384714    -1.0653368561
   15      C       1.7827249227    -1.0189065988     0.3031876743
   16      C       1.4918851468    -2.4525644572     0.3332590546
   17      C       0.3368011417    -3.0241697217     0.0227470600
   18      C       3.0716696674    -0.6195338684    -0.0197632794
   19      H       6.7914180805     0.8109464162    -0.9780734488
   20      H       5.7913316232    -0.6878318560    -0.6919108064
   21      H       4.9013130659     2.2342795950    -0.5287846133
   22      H       2.6985374484     2.7257966444     0.0478416907
   23      H       0.4504196236     2.0869448292     0.6758132126
   24      H      -1.2328646863     1.3161485414     1.6701105140
   25      H      -2.2325811336    -0.1475930398     1.6849285022
   26      H      -1.2482849450     1.2895840071    -0.8370458943
   27      H      -3.4460723877     2.1757904576    -1.1403768069
   28      H      -3.0082552134     2.5580063296     0.5303802574
   29      H      -5.3613428658     1.6733297695     0.2927691308
   30      H      -4.3734132416     0.6502312955     1.3360742846
   31      H      -4.9566195077     0.1717106279    -1.6234668699
   32      H      -5.5909396607    -0.7846396606    -0.2735061546
   33      H      -3.5928901194    -1.8595087486    -1.3963591406
   34      H      -3.3242990235    -1.5255256298     0.3277963927
   35      H       2.3439913456    -3.0748216463     0.5832113244
   36      H      -0.5240544519    -2.4517253164    -0.2723632962
   37      H       0.2229615260    -4.0956425991     0.0392441505
   38      H       3.8040502770    -1.3882170496    -0.2150195810
 ----------------------------------------------------------------

    9    -772.1324476626      2.40e-06  Convergence criterion met
 Total energy in the final basis set =     -772.1324476626

                    Orbital Energies (a.u.)
 --------------------------------------------------------------

 Alpha MOs
 -- Occupied --
-19.1749 -19.1478 -10.2448 -10.2418 -10.2378 -10.2290 -10.1895 -10.1890
-10.1871 -10.1847 -10.1841 -10.1827 -10.1824 -10.1822 -10.1802 -10.1769
-10.1698 -10.1632  -1.0702  -1.0370  -0.8598  -0.8101  -0.7978  -0.7804
 -0.7729  -0.7308  -0.7234  -0.6944  -0.6461  -0.6389  -0.6154  -0.6064
 -0.5776  -0.5581  -0.5357  -0.5227  -0.5129  -0.4929  -0.4708  -0.4699
 -0.4652  -0.4534  -0.4502  -0.4366  -0.4300  -0.4262  -0.4234  -0.4001
 -0.3988  -0.3873  -0.3847  -0.3813  -0.3684  -0.3571  -0.3528  -0.3452
 -0.3393  -0.3344  -0.3282  -0.3091  -0.2973  -0.2872  -0.2680  -0.2507
 -0.2243  -0.1959

          Ground-State Mulliken Net Atomic Charges

     Atom                 Charge (a.u.)
  ----------------------------------------
      1 C                    -0.357571
      2 C                    -0.116143
      3 C                     0.191145
      4 C                    -0.210713
      5 C                    -0.186135
      6 C                     0.324620
      7 O                    -0.513643
      8 C                    -0.058630
      9 C                     0.110848
     10 C                    -0.282204
     11 C                    -0.278037
     12 C                    -0.273852
     13 C                    -0.033991
     14 O                    -0.468918
     15 C                     0.123054
     16 C                    -0.122392
     17 C                    -0.339723
     18 C                    -0.270690
     19 H                     0.139237
     20 H                     0.139629
     21 H                     0.121499
     22 H                     0.125598
     23 H                     0.126252
     24 H                     0.139625
     25 H                     0.155179
     26 H                     0.148847
     27 H                     0.148518
     28 H                     0.134058
     29 H                     0.142152
     30 H                     0.135431
     31 H                     0.144172
     32 H                     0.136293
     33 H                     0.148291
     34 H                     0.125357
     35 H                     0.125225
     36 H                     0.171271
     37 H                     0.130212
     38 H                     0.126129
  ----------------------------------------
  Sum of atomic charges =     0.000000

                    Cartesian Multipole Moments
 -----------------------------------------------------------------
    Charge (ESU x 10^10)
                 0.0000
    Dipole Moment (Debye)
         X      -2.5955      Y       1.4199      Z       0.7781
       Tot       3.0592
    Quadrupole Moments (Debye-Ang)
        XX     -96.7020     XY      -1.1663     YY    -100.4471
        XZ      -2.5760     YZ       0.6581     ZZ    -112.2486

 Total job time:  82.40s(wall), 82.17s(cpu)
        *  Thank you very much for using Q-Chem.  Have a nice day.  *
