 Q-Chem 5.2, Q-Chem, Inc., Pleasanton, CA (2019)
 Q-Chem 5.2.1 for Intel X86 EM64T Linux

User input:
--------------------------------------------------------------
$molecule
0 1
C         3.92689141950000   -0.95383738290000   -0.27466906160000
C         3.08276213620000   -0.08159653020000    0.25799748220000
C         1.62544727760000   -0.14384400760000    0.12303947450000
C         1.00166976960000   -1.38177693010000    0.14217635370000
C        -0.38083164350000   -1.43756129740000    0.05744570870000
N        -1.22973625350000   -2.51893462790000    0.03335910070000
C        -2.41638448990000   -2.02084725810000   -0.08610892440000
N        -2.43568380700000   -0.65446060040000   -0.13008843100000
C        -1.13121569780000   -0.24463375890000   -0.03923965480000
C        -0.53649256900000    1.01587397250000   -0.07376815570000
C        -1.32400976580000    2.23578106440000   -0.23699485110000
C        -2.50722160930000    2.46367480070000    0.32053362720000
C         0.86509957820000    1.04953302780000    0.00755404870000
N         1.51061073240000    2.26769804040000   -0.09542893760000
H         4.98985230930000   -0.88267045790000   -0.11837046440000
H         3.58676148770000   -1.76440537780000   -0.89631143970000
H         3.48125699590000    0.72801081470000    0.86133396920000
H         1.57774300050000   -2.28600955170000    0.24709811010000
H        -3.31534673850000   -2.60453290040000   -0.13906617500000
H        -3.23512568550000   -0.06125840780000   -0.27270140010000
H        -0.88885040980000    2.99098353870000   -0.88137317320000
H        -2.96255284710000    1.76806091550000    1.00654979410000
H        -3.05052503970000    3.37591298030000    0.14067746950000
H         0.99238700620000    3.07533647670000    0.20668936880000
H         2.48441786850000    2.27941508370000    0.15674789530000
$end

$rem
BASIS = 6-31G*
GUI = 2
METHOD = B3LYP
PRINT_ORBITALS false
MOLDEN_FORMAT false
--------------------------------------------------------------

             Standard Nuclear Orientation (Angstroms)
    I     Atom           X                Y                Z
 ----------------------------------------------------------------
    1      C       3.9511293931    -0.8063789146    -0.2553356512
    2      C       3.0655551193     0.0315289038     0.2650110529
    3      C       1.6131497893    -0.1004689093     0.1273508038
    4      C       1.0479385105    -1.3659483274     0.1596087168
    5      C      -0.3301845124    -1.4874008805     0.0722728925
    6      N      -1.1274763603    -2.6075505182     0.0589319873
    7      C      -2.3357818741    -2.1670100175    -0.0692067128
    8      N      -2.4188793418    -0.8036326441    -0.1293407918
    9      C      -1.1352909704    -0.3321332237    -0.0402465861
   10      C      -0.6001137701     0.9543544457    -0.0882299074
   11      C      -1.4433812722     2.1340548033    -0.2676918484
   12      C      -2.6375818188     2.3127767559     0.2843111807
   13      C       0.7981243948     1.0545617469    -0.0039962381
   14      N       1.3862148964     2.3003357821    -0.1198097036
   15      H       5.0091349180    -0.6836912113    -0.0973740331
   16      H       3.6511200943    -1.6391845029    -0.8681793212
   17      H       3.4239634491     0.8658946802     0.8596994948
   18      H       1.6653908258    -2.2409246214     0.2765475880
   19      H      -3.2062841843    -2.7927330828    -0.1174031592
   20      H      -3.2447883939    -0.2502247853    -0.2808287347
   21      H      -1.0421666381     2.9012376581    -0.9198997515
   22      H      -3.0618562567     1.6046542064     0.9774035633
   23      H      -3.2224566777     3.1964095913     0.0924264162
   24      H       0.8298829500     3.0862890302     0.1715378594
   25      H       2.3576676199     2.3605864038     0.1345134199
 ----------------------------------------------------------------

    9    -590.0090696500      2.69e-06  Convergence criterion met
 Total energy in the final basis set =     -590.0090696500

                    Orbital Energies (a.u.)
 --------------------------------------------------------------

 Alpha MOs
 -- Occupied --
-14.3833 -14.3423 -14.3036 -10.2392 -10.2269 -10.2163 -10.1994 -10.1904
-10.1877 -10.1877 -10.1870 -10.1830 -10.1786 -10.1736  -1.0154  -0.9272
 -0.8762  -0.8352  -0.8034  -0.7681  -0.7182  -0.7154  -0.6477  -0.6143
 -0.6065  -0.5912  -0.5626  -0.5370  -0.5195  -0.5028  -0.4791  -0.4677
 -0.4468  -0.4391  -0.4357  -0.4240  -0.4103  -0.4044  -0.3852  -0.3657
 -0.3541  -0.3411  -0.3145  -0.2959  -0.2810  -0.2664  -0.2581  -0.2071
 -0.1854

          Ground-State Mulliken Net Atomic Charges

     Atom                 Charge (a.u.)
  ----------------------------------------
      1 C                    -0.336512
      2 C                    -0.149636
      3 C                     0.147459
      4 C                    -0.259641
      5 C                     0.247671
      6 N                    -0.496652
      7 C                     0.218877
      8 N                    -0.691193
      9 C                     0.243657
     10 C                     0.133032
     11 C                    -0.144731
     12 C                    -0.364012
     13 C                     0.153685
     14 N                    -0.811787
     15 H                     0.137489
     16 H                     0.147800
     17 H                     0.119187
     18 H                     0.140583
     19 H                     0.153234
     20 H                     0.329069
     21 H                     0.143030
     22 H                     0.141163
     23 H                     0.144671
     24 H                     0.326360
     25 H                     0.327197
  ----------------------------------------
  Sum of atomic charges =     0.000000

                    Cartesian Multipole Moments
 -----------------------------------------------------------------
    Charge (ESU x 10^10)
                 0.0000
    Dipole Moment (Debye)
         X      -1.4838      Y       3.4588      Z       0.3883
       Tot       3.7836
    Quadrupole Moments (Debye-Ang)
        XX     -63.4019     XY       2.0199     YY     -80.7755
        XZ       2.4589     YZ       2.9204     ZZ     -84.7428

 Total job time:  40.16s(wall), 40.04s(cpu)
        *  Thank you very much for using Q-Chem.  Have a nice day.  *
