 Q-Chem 5.2, Q-Chem, Inc., Pleasanton, CA (2019)
 Q-Chem 5.2.1 for Intel X86 EM64T Linux

User input:
--------------------------------------------------------------
$molecule
0 1
C        -3.81396348300000   -0.35475902940000   -0.01864031880000
C        -2.81856719000000    0.52447551710000    0.00354235160000
C        -1.39289145300000    0.22954747930000    0.00439336350000
C        -0.48145767550000    1.28899536930000    0.00671210540000
C         0.87835636600000    1.06840244870000    0.00694242370000
C         1.39290382430000   -0.22956210900000    0.00592564450000
C         2.81859109840000   -0.52446546210000    0.00641695760000
C         3.81390186420000    0.35476078740000   -0.02163346110000
C         0.48147870480000   -1.28900070580000    0.00576717420000
C        -0.87833673410000   -1.06840779080000    0.00436531150000
H        -4.84206982490000   -0.03541842830000   -0.01787864530000
H        -3.65317961850000   -1.41892123740000   -0.03963764360000
H        -3.05692357240000    1.58157601320000    0.02148532490000
H        -0.85496212970000    2.30394991010000    0.00812147010000
H         1.54907060940000    1.91381702160000    0.00994445580000
H         3.05697668260000   -1.58148801350000    0.03006932050000
H         3.65291365030000    1.41879742910000   -0.04908634000000
H         4.84207422350000    0.03563408660000   -0.01907663410000
H         0.85497025400000   -2.30396222160000    0.00620866490000
H        -1.54905286580000   -1.91382373860000    0.00466664290000
$end

$rem
BASIS = 6-31G*
GUI = 2
METHOD = B3LYP
PRINT_ORBITALS false
MOLDEN_FORMAT false
--------------------------------------------------------------

             Standard Nuclear Orientation (Angstroms)
    I     Atom           X                Y                Z
 ----------------------------------------------------------------
    1      C       3.8155049522    -0.3377600324     0.0183870874
    2      C       2.8162009076     0.5370282453    -0.0038869833
    3      C       1.3918535223     0.2357502909    -0.0047229997
    4      C       0.4757079496     1.2911261205    -0.0071493124
    5      C      -0.8831096347     1.0644760808    -0.0073710272
    6      C      -1.3918683062    -0.2357682970    -0.0062369802
    7      C      -2.8162273418    -0.5370215846    -0.0067133003
    8      C      -3.8154462913     0.3377634910     0.0212457194
    9      C      -0.4757314127    -1.2911350747    -0.0059709401
   10      C       0.8830875581    -1.0644849245    -0.0045776809
   11      H       4.8421781229    -0.0138414652     0.0176045875
   12      H       3.6594643606    -1.4026261484     0.0394828806
   13      H       3.0498446853     1.5951786668    -0.0219270715
   14      H       0.8446861043     2.3077347723    -0.0086506325
   15      H      -1.5575843313     1.9068932936    -0.0104583945
   16      H      -3.0499002807    -1.5950980954    -0.0302685556
   17      H      -3.6592012443     1.4025094989     0.0486001433
   18      H      -4.8421864010     0.0140582164     0.0187096982
   19      H      -0.8446966142    -2.3077508176    -0.0063204746
   20      H       1.5575641799    -1.9069038138    -0.0047936769
 ----------------------------------------------------------------

    8    -387.0467406241      2.98e-06  Convergence criterion met
 Total energy in the final basis set =     -387.0467406241

                    Orbital Energies (a.u.)
 --------------------------------------------------------------

 Alpha MOs
 -- Occupied --
-10.1939 -10.1939 -10.1896 -10.1896 -10.1869 -10.1869 -10.1859 -10.1859
-10.1793 -10.1793  -0.8661  -0.8075  -0.7660  -0.7495  -0.7142  -0.6384
 -0.6065  -0.5752  -0.5555  -0.5024  -0.4872  -0.4542  -0.4454  -0.4392
 -0.4197  -0.3999  -0.3892  -0.3815  -0.3548  -0.3441  -0.3343  -0.3215
 -0.2684  -0.2534  -0.2093

          Ground-State Mulliken Net Atomic Charges

     Atom                 Charge (a.u.)
  ----------------------------------------
      1 C                    -0.352503
      2 C                    -0.114137
      3 C                     0.180078
      4 C                    -0.199820
      5 C                    -0.182273
      6 C                     0.180058
      7 C                    -0.114156
      8 C                    -0.352490
      9 C                    -0.199807
     10 C                    -0.182275
     11 H                     0.144361
     12 H                     0.142671
     13 H                     0.126674
     14 H                     0.127960
     15 H                     0.126991
     16 H                     0.126686
     17 H                     0.142671
     18 H                     0.144366
     19 H                     0.127958
     20 H                     0.126987
  ----------------------------------------
  Sum of atomic charges =     0.000000

                    Cartesian Multipole Moments
 -----------------------------------------------------------------
    Charge (ESU x 10^10)
                 0.0000
    Dipole Moment (Debye)
         X      -0.0001      Y      -0.0000      Z      -0.0012
       Tot       0.0012
    Quadrupole Moments (Debye-Ang)
        XX     -53.7599     XY       0.0422     YY     -52.4177
        XZ       0.0044     YZ       0.0089     ZZ     -64.0234

 Total job time:  16.71s(wall), 16.64s(cpu)
        *  Thank you very much for using Q-Chem.  Have a nice day.  *
