 Q-Chem 5.2, Q-Chem, Inc., Pleasanton, CA (2019)
 Q-Chem 5.2.1 for Intel X86 EM64T Linux

User input:
--------------------------------------------------------------
$molecule
0 1
C        -3.20592009890000    1.59696313420000    0.34545451690000
C        -2.11317017990000    1.60725045590000   -0.40405274180000
C        -0.97046255680000    0.72411225470000   -0.23358068650000
C         0.36945265330000    1.15580491700000   -0.36387635060000
C         1.17028002360000    0.08083448420000   -0.04807439570000
C         2.63229398360000   -0.08376736660000    0.01011985870000
O         3.18026424200000   -1.10234531730000    0.32429781030000
O         3.34121723430000    1.01716283810000   -0.32189633200000
O         0.39724671820000   -0.97961623730000    0.25170988050000
C        -0.89224569440000   -0.61588813480000    0.13616020490000
C        -1.85649739020000   -1.67193003510000    0.33931687420000
C        -3.12281749870000   -1.67407171900000   -0.06299642340000
H        -3.99857517690000    2.30863164820000    0.19192108730000
H        -3.34081290230000    0.88607897770000    1.14277201780000
H        -1.98621121670000    2.36365980540000   -1.16886087700000
H         0.67085662660000    2.14870415240000   -0.63888883320000
H         2.78060276860000    1.76757390100000   -0.55450524240000
H        -1.43227575780000   -2.54297371590000    0.82176529040000
H        -3.56192842700000   -0.84013585870000   -0.58157850820000
H        -3.75471258600000   -2.52756201450000    0.10855500920000
$end

$rem
BASIS = 6-31G*
GUI = 2
METHOD = B3LYP
PRINT_ORBITALS false
MOLDEN_FORMAT false
--------------------------------------------------------------

             Standard Nuclear Orientation (Angstroms)
    I     Atom           X                Y                Z
 ----------------------------------------------------------------
    1      C       3.1185643675     1.5292334457    -0.5393567726
    2      C       2.0129644179     1.6465833086     0.1816474621
    3      C       0.8784795059     0.7381522105     0.1319338793
    4      C      -0.4659521716     1.1736032877     0.1718601712
    5      C      -1.2549944016     0.0559763620     0.0139386807
    6      C      -2.7148106994    -0.1278982272    -0.0416641261
    7      O      -3.2513905033    -1.1874490070    -0.2026439078
    8      O      -3.4356979568     1.0052492494     0.1037752088
    9      O      -0.4707985716    -1.0316439463    -0.1049133347
   10      C       0.8143862813    -0.6436053906    -0.0263861725
   11      C       1.7880708706    -1.7102711923    -0.0473825611
   12      C       3.0472293231    -1.6393384921     0.3708467266
   13      H       3.9043348736     2.2627191070    -0.4854109027
   14      H       3.2713256659     0.7043619560    -1.2142779241
   15      H       1.8684363421     2.5114470287     0.8175150166
   16      H      -0.7777796464     2.1945969164     0.2843801627
   17      H      -2.8835210605     1.7873376735     0.2260479361
   18      H       1.3772825735    -2.6491634402    -0.3954800810
   19      H       3.4724925686    -0.7313697743     0.7606399854
   20      H       3.6868999743    -2.5037917108     0.3442183502
 ----------------------------------------------------------------

    9    -573.3801125999      7.85e-06  Convergence criterion met
 Total energy in the final basis set =     -573.3801125999

                    Orbital Energies (a.u.)
 --------------------------------------------------------------

 Alpha MOs
 -- Occupied --
-19.2384 -19.1962 -19.1305 -10.3233 -10.2668 -10.2622 -10.2172 -10.2143
-10.2111 -10.2104 -10.1977 -10.1951  -1.1466  -1.1027  -1.0209  -0.8481
 -0.8221  -0.7791  -0.7530  -0.6612  -0.6429  -0.6198  -0.6140  -0.5643
 -0.5366  -0.5072  -0.4926  -0.4795  -0.4518  -0.4453  -0.4408  -0.4357
 -0.4225  -0.4057  -0.3881  -0.3776  -0.3738  -0.3295  -0.3181  -0.3110
 -0.2767  -0.2723  -0.2213

          Ground-State Mulliken Net Atomic Charges

     Atom                 Charge (a.u.)
  ----------------------------------------
      1 C                    -0.334569
      2 C                    -0.131855
      3 C                     0.066533
      4 C                    -0.250865
      5 C                     0.263398
      6 C                     0.549399
      7 O                    -0.442216
      8 O                    -0.579721
      9 O                    -0.448030
     10 C                     0.292159
     11 C                    -0.134206
     12 C                    -0.340718
     13 H                     0.149722
     14 H                     0.160720
     15 H                     0.138899
     16 H                     0.146050
     17 H                     0.415745
     18 H                     0.159599
     19 H                     0.164489
     20 H                     0.155467
  ----------------------------------------
  Sum of atomic charges =     0.000000

                    Cartesian Multipole Moments
 -----------------------------------------------------------------
    Charge (ESU x 10^10)
                 0.0000
    Dipole Moment (Debye)
         X       4.5277      Y       3.2742      Z       0.5444
       Tot       5.6140
    Quadrupole Moments (Debye-Ang)
        XX     -77.9334     XY      -9.3650     YY     -61.8003
        XZ      -1.5731     YZ       1.7117     ZZ     -69.1003

 Total job time:  23.78s(wall), 23.70s(cpu)
        *  Thank you very much for using Q-Chem.  Have a nice day.  *
