 Q-Chem 5.2, Q-Chem, Inc., Pleasanton, CA (2019)
 Q-Chem 5.2.1 for Intel X86 EM64T Linux

User input:
--------------------------------------------------------------
$molecule
0 1
C        -5.25233734720000   -4.09799918670000    0.28047442120000
O        -3.87201861620000   -4.35801308950000    0.23623694200000
C        -3.01637973030000   -3.29549515310000    0.14968293280000
C        -3.40669769120000   -1.96756470150000    0.10134764220000
C        -2.41934827760000   -0.99279000270000    0.00718563230000
C        -2.47513878550000    0.44165437890000   -0.03372684460000
C        -3.52117455090000    1.34842403860000   -0.03344211550000
C        -3.23583428970000    2.70719740520000   -0.11108078410000
O        -4.32242573160000    3.53819830140000   -0.09645917470000
C        -4.11333591630000    4.92527905620000   -0.17553364100000
C        -1.91133548340000    3.14260289710000   -0.20898018020000
C        -0.85761096850000    2.24529157280000   -0.21114593210000
C        -1.13681326430000    0.89392116470000   -0.10224260970000
N        -0.28397050670000   -0.19675063850000   -0.11302280790000
C         1.10775193070000   -0.14846855430000   -0.17633822330000
C         1.82522871850000    0.71554408070000    0.65062520540000
C         3.20143385280000    0.76704665120000    0.58829023520000
C         3.90738618120000   -0.04918916580000   -0.29921745970000
C         5.35484434270000   -0.04931049620000   -0.41416423800000
C         6.23654783180000    0.68814088150000    0.24577956430000
F         6.00391725840000    1.60920897450000    1.17435341870000
F         7.55168722400000    0.59718250000000    0.05052768820000
C         3.18011814830000   -0.91468661500000   -1.12156205100000
C         1.80444522200000   -0.96446631760000   -1.06741845210000
C        -1.05537964310000   -1.34520534410000   -0.04844482200000
C        -0.66860658500000   -2.67667909510000    0.03146761960000
C        -1.65435167030000   -3.63396301180000    0.12402476500000
H        -5.73470799080000   -5.07218204910000    0.34453297640000
H        -5.59469384320000   -3.58410293830000   -0.62404249870000
H        -5.52208671470000   -3.50309535190000    1.15954677970000
H        -4.44165149120000   -1.66997601070000    0.14160465370000
H        -4.54914964880000    1.02901039240000    0.01941618840000
H        -5.10485235030000    5.37433497150000   -0.13871983240000
H        -3.62520473880000    5.20827813240000   -1.11429718700000
H        -3.52002334280000    5.29381887950000    0.66809906180000
H        -1.68754408710000    4.19419119000000   -0.29091689050000
H         0.15494549990000    2.60531652600000   -0.31020503410000
H         1.29434699860000    1.33183210170000    1.35996438920000
H         3.72748222970000    1.44017841230000    1.24490285060000
H         5.78088891220000   -0.73740586900000   -1.13024961790000
H         3.70648967700000   -1.54883869940000   -1.81985654860000
H         1.25724623010000   -1.61965363340000   -1.72780430170000
H         0.37175775900000   -2.96254195550000    0.03749386340000
H        -1.39952689030000   -4.67992987500000    0.18532881750000
$end

$rem
BASIS = 6-31G*
GUI = 2
METHOD = B3LYP
PRINT_ORBITALS false
MOLDEN_FORMAT false
--------------------------------------------------------------

             Standard Nuclear Orientation (Angstroms)
    I     Atom           X                Y                Z
 ----------------------------------------------------------------
    1      C       5.6070783442     3.4434917945     0.3154223474
    2      O       4.2687308786     3.8682841173     0.2586638492
    3      C       3.2915552822     2.9166111893     0.1692191366
    4      C       3.5187497095     1.5510042822     0.1294175952
    5      C       2.4215069652     0.7023184599     0.0309198937
    6      C       2.3036989927    -0.7285314760    -0.0038196812
    7      C       3.2323406828    -1.7551219544     0.0087787466
    8      C       2.7853556608    -3.0697893829    -0.0658257554
    9      O       3.7633072008    -4.0260009723    -0.0388549502
   10      C       3.3885976602    -5.3779950807    -0.1141479342
   11      C       1.4187185579    -3.3423207118    -0.1730126287
   12      C       0.4813153931    -2.3241986432    -0.1875183639
   13      C       0.9210690025    -1.0159826127    -0.0816721730
   14      N       0.2065218043     0.1697452923    -0.1038893076
   15      C      -1.1802872781     0.2897920521    -0.1785933146
   16      C      -2.0034167777    -0.4770140308     0.6458007326
   17      C      -3.3752201290    -0.3620355870     0.5722190928
   18      C      -3.9703330734     0.5291665281    -0.3243738365
   19      C      -5.4062105126     0.7037446441    -0.4513634693
   20      C      -6.3757479569     0.0816002249     0.2041476787
   21      F      -6.2634667913    -0.8562258222     1.1382826068
   22      F      -7.6686699960     0.3299496984    -0.0024037269
   23      C      -3.1373408569     1.2962854396    -1.1440736570
   24      C      -1.7662104465     1.1796205512    -1.0786806153
   25      C       1.1106542602     1.2167995318    -0.0374626234
   26      C       0.8871614901     2.5856515335     0.0339301330
   27      C       1.9807085962     3.4171611767     0.1308792710
   28      H       6.2032280158     4.3525032174     0.3796172675
   29      H       5.8917894827     2.8874922477    -0.5841621425
   30      H       5.7960415127     2.8246988994     1.1990692109
   31      H       4.5097645681     1.1306553185     0.1794707944
   32      H       4.2909607352    -1.5620973377     0.0689199270
   33      H       4.3182012367    -5.9434625553    -0.0672967232
   34      H       2.8771390563    -5.6045413434    -1.0558083859
   35      H       2.7485179461    -5.6679015493     0.7259769063
   36      H       1.0700181177    -4.3595247487    -0.2526248250
   37      H      -0.5665524323    -2.5596294571    -0.2935684779
   38      H      -1.5565124044    -1.1494513487     1.3619801360
   39      H      -3.9839187979    -0.9633556446     1.2271034399
   40      H      -5.7403126055     1.4347511261    -1.1737018965
   41      H      -3.5776934517     1.9859648778    -1.8492423762
   42      H      -1.1386582396     1.7605518165    -1.7370906080
   43      H      -0.1110024593     2.9952444703     0.0301598377
   44      H       1.8538021413     4.4865573473     0.1858985066
 ----------------------------------------------------------------

    9   -1253.4274111467      4.03e-06  Convergence criterion met
 Total energy in the final basis set =    -1253.4274111467

                    Orbital Energies (a.u.)
 --------------------------------------------------------------

 Alpha MOs
 -- Occupied --
-24.7470 -24.7361 -19.1689 -19.1685 -14.3784 -10.3590 -10.2362 -10.2361
-10.2353 -10.2350 -10.2340 -10.2150 -10.2148 -10.2100 -10.2061 -10.1981
-10.1957 -10.1957 -10.1951 -10.1864 -10.1861 -10.1842 -10.1836 -10.1828
-10.1811 -10.1794 -10.1778  -1.2875  -1.2266  -1.0588  -1.0584  -0.9975
 -0.8792  -0.8499  -0.8460  -0.8115  -0.7829  -0.7642  -0.7570  -0.7510
 -0.7332  -0.7216  -0.6954  -0.6879  -0.6499  -0.6366  -0.6274  -0.6159
 -0.5917  -0.5814  -0.5797  -0.5737  -0.5447  -0.5379  -0.5266  -0.5212
 -0.5190  -0.5042  -0.4906  -0.4819  -0.4657  -0.4647  -0.4644  -0.4617
 -0.4549  -0.4457  -0.4431  -0.4381  -0.4366  -0.4328  -0.4226  -0.4191
 -0.4157  -0.4136  -0.4094  -0.4007  -0.3906  -0.3816  -0.3779  -0.3685
 -0.3600  -0.3566  -0.3515  -0.3461  -0.3255  -0.3170  -0.3148  -0.3094
 -0.2874  -0.2700  -0.2637  -0.2323  -0.2272  -0.2032  -0.1779

          Ground-State Mulliken Net Atomic Charges

     Atom                 Charge (a.u.)
  ----------------------------------------
      1 C                    -0.208978
      2 O                    -0.513205
      3 C                     0.370418
      4 C                    -0.274492
      5 C                     0.052294
      6 C                     0.073802
      7 C                    -0.267498
      8 C                     0.377629
      9 O                    -0.514199
     10 C                    -0.210827
     11 C                    -0.211045
     12 C                    -0.182373
     13 C                     0.313340
     14 N                    -0.743218
     15 C                     0.295670
     16 C                    -0.164205
     17 C                    -0.208954
     18 C                     0.203432
     19 C                    -0.299534
     20 C                     0.543192
     21 F                    -0.235199
     22 F                    -0.248065
     23 C                    -0.208842
     24 C                    -0.164765
     25 C                     0.307596
     26 C                    -0.173125
     27 C                    -0.184819
     28 H                     0.166190
     29 H                     0.147720
     30 H                     0.147920
     31 H                     0.132430
     32 H                     0.132230
     33 H                     0.166009
     34 H                     0.146995
     35 H                     0.146627
     36 H                     0.127621
     37 H                     0.141160
     38 H                     0.152920
     39 H                     0.143863
     40 H                     0.160476
     41 H                     0.133920
     42 H                     0.153457
     43 H                     0.141560
     44 H                     0.134870
  ----------------------------------------
  Sum of atomic charges =     0.000000

                    Cartesian Multipole Moments
 -----------------------------------------------------------------
    Charge (ESU x 10^10)
                 0.0000
    Dipole Moment (Debye)
         X       0.1693      Y      -1.0129      Z      -0.5763
       Tot       1.1776
    Quadrupole Moments (Debye-Ang)
        XX    -145.4454     XY      -2.7451     YY    -138.2624
        XZ       3.6784     YZ      -2.8108     ZZ    -153.8035

 Total job time:  140.40s(wall), 140.03s(cpu)
        *  Thank you very much for using Q-Chem.  Have a nice day.  *
