 Q-Chem 5.2, Q-Chem, Inc., Pleasanton, CA (2019)
 Q-Chem 5.2.1 for Intel X86 EM64T Linux

User input:
--------------------------------------------------------------
$molecule
0 1
C         4.25771750690000    1.96445650600000   -0.10562027200000
C         3.76910386990000    0.73674006790000    0.02500084720000
C         2.36221500830000    0.35429336690000    0.02541843270000
C         2.04367953750000   -1.00304232160000    0.11389351380000
C         0.73967409210000   -1.49941525070000    0.10658866840000
C         0.49729690700000   -2.93536204890000    0.16879704100000
C        -0.55750413200000   -3.56941937050000   -0.32794377040000
C        -0.26735160480000   -0.53878926110000    0.04079096550000
N        -1.64300473930000   -0.59210437250000    0.06608275760000
C        -2.14277183660000    0.67922513630000    0.01177246290000
S        -3.71690224130000    1.08829130910000    0.02558320040000
O        -1.11720271320000    1.54918349440000   -0.06241846070000
C         0.04321705360000    0.82735500440000   -0.03401585350000
C         1.33306695370000    1.30061327520000   -0.05261269980000
H         5.31858576760000    2.14482317170000   -0.09473266360000
H         3.63490317750000    2.83299887340000   -0.23013821740000
H         4.45810461320000   -0.09048363070000    0.14024443670000
H         2.85258812140000   -1.71696045430000    0.17529479530000
H         1.28795318240000   -3.50623036860000    0.63856556040000
H        -1.34324260560000   -3.06385841500000   -0.86356817130000
H        -0.65268693900000   -4.63870166590000   -0.25229254520000
H        -2.22172358700000   -1.40504818840000    0.19014211780000
H         1.52666658150000    2.35690257550000   -0.11195428550000
$end

$rem
BASIS = 6-31G*
GUI = 2
METHOD = B3LYP
PRINT_ORBITALS false
MOLDEN_FORMAT false
--------------------------------------------------------------

             Standard Nuclear Orientation (Angstroms)
    I     Atom           X                Y                Z
 ----------------------------------------------------------------
    1      C       4.2638752971    -1.8292583825     0.1077239254
    2      C       3.7268603344    -0.6219490379    -0.0230885043
    3      C       2.3058480032    -0.2958777960    -0.0249383974
    4      C       1.9335643369     1.0477126804    -0.1133825098
    5      C       0.6108046807     1.4917175628    -0.1073655721
    6      C       0.3114572426     2.9168835009    -0.1694376979
    7      C      -0.7683132193     3.5082374016     0.3263260226
    8      C      -0.3572053283     0.4916985051    -0.0429381677
    9      N      -1.7338621707     0.4901526150    -0.0697200781
   10      C      -2.1826212621    -0.8001025264    -0.0163119558
   11      S      -3.7391815748    -1.2715763410    -0.0319592098
   12      O      -1.1232753066    -1.6285194186     0.0587577736
   13      C       0.0074837196    -0.8610066538     0.0318265129
   14      C       1.3151498144    -1.2824877790     0.0517022246
   15      H       5.3311004033    -1.9671971966     0.0979465532
   16      H       3.6760375871    -2.7219731614     0.2313176219
   17      H       4.3824685699     0.2321147752    -0.1373469888
   18      H       2.7134426538     1.7933225124    -0.1736992067
   19      H       1.0792409477     3.5189616009    -0.6381813271
   20      H      -1.5338571452     2.9715895081     0.8609491266
   21      H      -0.9059551983     4.5729009709     0.2508695999
   22      H      -2.3443868551     1.2794256367    -0.1941852714
   23      H       1.5506301664    -2.3302409976     0.1109603232
 ----------------------------------------------------------------

    9    -952.7209233799      4.59e-06  Convergence criterion met
 Total energy in the final basis set =     -952.7209233799

                    Orbital Energies (a.u.)
 --------------------------------------------------------------

 Alpha MOs
 -- Occupied --
-88.8329 -19.2419 -14.4151 -10.3329 -10.2717 -10.2580 -10.2246 -10.2165
-10.2159 -10.2135 -10.2085 -10.2042 -10.2024 -10.1905  -7.8968  -5.8619
 -5.8566  -5.8526  -1.1623  -0.9884  -0.8925  -0.8267  -0.8153  -0.7728
 -0.7549  -0.7227  -0.6799  -0.6528  -0.6426  -0.6149  -0.5738  -0.5498
 -0.5449  -0.5088  -0.5039  -0.4895  -0.4783  -0.4521  -0.4483  -0.4191
 -0.4103  -0.4014  -0.3950  -0.3845  -0.3815  -0.3679  -0.3651  -0.3278
 -0.3085  -0.2618  -0.2464  -0.2237  -0.2108

          Ground-State Mulliken Net Atomic Charges

     Atom                 Charge (a.u.)
  ----------------------------------------
      1 C                    -0.352178
      2 C                    -0.115544
      3 C                     0.185908
      4 C                    -0.303022
      5 C                     0.191200
      6 C                    -0.106655
      7 C                    -0.363639
      8 C                     0.271001
      9 N                    -0.708839
     10 C                     0.394093
     11 S                    -0.243070
     12 O                    -0.452549
     13 C                     0.318993
     14 C                    -0.247274
     15 H                     0.150109
     16 H                     0.146204
     17 H                     0.131645
     18 H                     0.135785
     19 H                     0.146084
     20 H                     0.143834
     21 H                     0.158692
     22 H                     0.361614
     23 H                     0.157608
  ----------------------------------------
  Sum of atomic charges =     0.000000

                    Cartesian Multipole Moments
 -----------------------------------------------------------------
    Charge (ESU x 10^10)
                 0.0000
    Dipole Moment (Debye)
         X       4.1350      Y       3.5726      Z      -0.2102
       Tot       5.4686
    Quadrupole Moments (Debye-Ang)
        XX     -95.4942     XY     -10.8830     YY     -81.4817
        XZ      -0.7643     YZ      -1.2065     ZZ     -91.0403

 Total job time:  38.53s(wall), 38.41s(cpu)
        *  Thank you very much for using Q-Chem.  Have a nice day.  *
