 Q-Chem 5.2, Q-Chem, Inc., Pleasanton, CA (2019)
 Q-Chem 5.2.1 for Intel X86 EM64T Linux

User input:
--------------------------------------------------------------
$molecule
0 1
C        -4.16856857620000    0.86624770550000   -0.78894026910000
C        -3.34556822430000    1.09448348820000    0.22298809160000
C        -1.93298156860000    0.69933388240000    0.25637509390000
C        -1.01013692460000    1.66223883180000    0.66901200540000
C         0.34925495220000    1.41866214230000    0.63009514910000
C         0.78956335300000    0.19332746390000    0.16892109080000
S         2.54846023570000   -0.12167882790000    0.04318754820000
C         2.95527398100000    0.50610841990000   -1.61585712820000
O         3.24308618430000    0.68553711410000    1.00908271980000
O         2.77566556130000   -1.54147547140000    0.05198358770000
C        -0.09837921630000   -0.78613656580000   -0.21670503890000
C        -1.47340345910000   -0.56310462890000   -0.15588926700000
C        -2.35528495240000   -1.69386203120000   -0.46389672730000
C        -3.40723489050000   -2.04969624460000    0.25729272650000
H        -5.18258751040000    1.22715220060000   -0.78518519220000
H        -3.85889284340000    0.31140752580000   -1.65841391190000
H        -3.67692320480000    1.68815581360000    1.06610374570000
H        -1.37386246310000    2.62167032710000    1.00721723980000
H         1.07102119320000    2.14992048880000    0.95723971980000
H         2.71185348990000    1.56001459470000   -1.64488763280000
H         2.37610539500000   -0.05476852470000   -2.33749936570000
H         4.01530995690000    0.35458482400000   -1.77637575410000
H         0.29241116840000   -1.74268773170000   -0.52936879740000
H        -2.03679104550000   -2.30938185870000   -1.29600681320000
H        -3.72557451730000   -1.48293062110000    1.11577020590000
H        -3.98620733500000   -2.92471439150000    0.01736929990000
$end

$rem
BASIS = 6-31G*
GUI = 2
METHOD = B3LYP
PRINT_ORBITALS false
MOLDEN_FORMAT false
--------------------------------------------------------------

             Standard Nuclear Orientation (Angstroms)
    I     Atom           X                Y                Z
 ----------------------------------------------------------------
    1      C      -4.0898369077    -0.8016992124     0.9106974187
    2      C      -3.2604416836    -1.1860177341    -0.0473333714
    3      C      -1.8567203715    -0.7723361772    -0.1526567314
    4      C      -0.9125115714    -1.7724670125    -0.3920423063
    5      C       0.4412036541    -1.4964412699    -0.3994772119
    6      C       0.8540452860    -0.1999594106    -0.1613708295
    7      S       2.6054790026     0.1702575694    -0.0967530637
    8      C       3.0231581263    -0.1478042497     1.6457808152
    9      O       3.3190334815    -0.7786321770    -0.9076195895
   10      O       2.8018017335     1.5710807853    -0.3549658489
   11      C      -0.0555858768     0.8124879320     0.0484405853
   12      C      -1.4253407421     0.5525032736     0.0307471442
   13      C      -2.3320736926     1.7003776131     0.1375915354
   14      C      -3.3903407940     1.9013048005    -0.6324928077
   15      H      -5.0957690886    -1.1795534504     0.9725615958
   16      H      -3.7936900250    -0.0963630662     1.6686743608
   17      H      -3.5774616135    -1.9254207563    -0.7725012789
   18      H      -1.2547631755    -2.7840017567    -0.5558993874
   19      H       1.1792117157    -2.2579330359    -0.5948825276
   20      H       2.8026430421    -1.1852996189     1.8597691035
   21      H       2.4307788883     0.5182805704     2.2591359878
   22      H       4.0793920674     0.0524619395     1.7748746367
   23      H       0.3138279167     1.8172937494     0.1875973384
   24      H      -2.0283686371     2.4590748967     0.8481208402
   25      H      -3.6949081883     1.1859721495    -1.3775329900
   26      H      -3.9885712246     2.7920870860    -0.5484905976
 ----------------------------------------------------------------

    9    -974.9159374331      6.20e-06  Convergence criterion met
 Total energy in the final basis set =     -974.9159374331

                    Orbital Energies (a.u.)
 --------------------------------------------------------------

 Alpha MOs
 -- Occupied --
-89.0876 -19.1306 -19.1304 -10.2223 -10.2190 -10.2177 -10.2158 -10.2112
-10.2101 -10.2072 -10.2012 -10.1990 -10.1913 -10.1884  -8.1176  -6.0819
 -6.0812  -6.0807  -1.1103  -1.0007  -0.8918  -0.8226  -0.8009  -0.7752
 -0.7523  -0.7400  -0.6652  -0.6375  -0.6090  -0.5915  -0.5497  -0.5273
 -0.5013  -0.4935  -0.4769  -0.4736  -0.4622  -0.4568  -0.4480  -0.4362
 -0.4300  -0.4230  -0.4077  -0.3903  -0.3848  -0.3637  -0.3583  -0.3292
 -0.3139  -0.3060  -0.3034  -0.2941  -0.2849  -0.2626  -0.2324

          Ground-State Mulliken Net Atomic Charges

     Atom                 Charge (a.u.)
  ----------------------------------------
      1 C                    -0.305889
      2 C                    -0.155551
      3 C                     0.104473
      4 C                    -0.178044
      5 C                    -0.145502
      6 C                    -0.149761
      7 S                     1.073492
      8 C                    -0.625219
      9 O                    -0.522223
     10 O                    -0.521742
     11 C                    -0.210137
     12 C                     0.104911
     13 C                    -0.148864
     14 C                    -0.307374
     15 H                     0.148147
     16 H                     0.152035
     17 H                     0.141416
     18 H                     0.142527
     19 H                     0.174774
     20 H                     0.197689
     21 H                     0.197476
     22 H                     0.216764
     23 H                     0.176918
     24 H                     0.139715
     25 H                     0.152218
     26 H                     0.147752
  ----------------------------------------
  Sum of atomic charges =     0.000000

                    Cartesian Multipole Moments
 -----------------------------------------------------------------
    Charge (ESU x 10^10)
                 0.0000
    Dipole Moment (Debye)
         X      -4.1389      Y      -1.4345      Z       3.2858
       Tot       5.4758
    Quadrupole Moments (Debye-Ang)
        XX     -91.3777     XY      -3.0540     YY     -86.9054
        XZ      11.7708     YZ       2.5542     ZZ     -87.6823

 Total job time:  42.54s(wall), 42.41s(cpu)
        *  Thank you very much for using Q-Chem.  Have a nice day.  *
