 Q-Chem 5.2, Q-Chem, Inc., Pleasanton, CA (2019)
 Q-Chem 5.2.1 for Intel X86 EM64T Linux

User input:
--------------------------------------------------------------
$molecule
0 1
C        -1.25281241080000   -2.62754614070000    1.58015352260000
C        -0.79993293820000   -1.39781888190000    1.37848747450000
C        -1.43532539360000   -0.39953657310000    0.52112914110000
C        -2.81663311810000   -0.37982652070000    0.34257928560000
C        -3.42406900940000    0.58607274770000   -0.43666665060000
C        -2.65713590170000    1.56510076560000   -1.04626008870000
C        -1.28493896380000    1.56442279580000   -0.87543452970000
C        -0.66113819100000    0.58659220870000   -0.10931848590000
C         0.80637744680000    0.62436104000000    0.04594715910000
C         1.37708987010000    1.75710224070000    0.61759393320000
C         2.73871539130000    1.83747228160000    0.84264450920000
C         3.55280828590000    0.76951591450000    0.50379718600000
C         2.99921700920000   -0.35820037240000   -0.07050573490000
C         1.63173490040000   -0.44580410010000   -0.32804377340000
C         1.13366829920000   -1.64578281110000   -1.00315863600000
C         0.18668236440000   -1.67502846890000   -1.92929420890000
H        -0.74374117540000   -3.31649930160000    2.23227445790000
H        -2.13598427080000   -3.00186114890000    1.09014663850000
H         0.11452417480000   -1.07918278360000    1.86333679550000
H        -3.42174991310000   -1.12082631250000    0.84318945720000
H        -4.49708904950000    0.58246597860000   -0.56132814960000
H        -3.12655963300000    2.32799247660000   -1.64990982400000
H        -0.67841951170000    2.32018985920000   -1.35502984290000
H         0.73249651220000    2.57583747530000    0.90545166970000
H         3.16148580300000    2.72482383280000    1.29026848910000
H         4.61621706270000    0.81628029880000    0.68725837880000
H         3.63547576740000   -1.18800777310000   -0.34515747510000
H         1.65251450090000   -2.56075552220000   -0.74253931050000
H        -0.33061245560000   -0.78786687670000   -2.25188150830000
H        -0.10240846440000   -2.59572103300000   -2.40708323820000
$end

$rem
BASIS = 6-31G*
GUI = 2
METHOD = B3LYP
PRINT_ORBITALS false
MOLDEN_FORMAT false
--------------------------------------------------------------

             Standard Nuclear Orientation (Angstroms)
    I     Atom           X                Y                Z
 ----------------------------------------------------------------
    1      C       1.4219536840     2.6600584140     1.3281208558
    2      C       0.8494338137     1.4666451642     1.2507648209
    3      C       1.4255424673     0.3010858425     0.5837380305
    4      C       2.8048853638     0.1170846453     0.5218001580
    5      C       3.3516628840    -1.0030308411    -0.0744712804
    6      C       2.5229147712    -1.9734259422    -0.6127986200
    7      C       1.1510020030    -1.8101605319    -0.5553005322
    8      C       0.5902038878    -0.6784265246     0.0251281579
    9      C      -0.8794626741    -0.5455070593     0.0644812353
   10      C      -1.6096708577    -1.5254836693     0.7293400058
   11      C      -2.9837494112    -1.4357258759     0.8517443875
   12      C      -3.6493852851    -0.3472215512     0.3130582358
   13      C      -2.9365354441     0.6291766999    -0.3551653269
   14      C      -1.5536743199     0.5415030123    -0.5101363175
   15      C      -0.8810979062     1.5809313077    -1.2918198277
   16      C       0.1229879008     1.3868359712    -2.1341401119
   17      H       0.9503578728     3.4798900394     1.8424604242
   18      H       2.3720621652     2.8721909674     0.8671385787
   19      H      -0.1251499701     1.3118441045     1.6969292738
   20      H       3.4539594982     0.8544227358     0.9700109113
   21      H       4.4243256372    -1.1254018489    -0.1111517800
   22      H       2.9437271587    -2.8554534390    -1.0729071229
   23      H       0.4974888730    -2.5590292412    -0.9809501646
   24      H      -1.0809395337    -2.3582026232     1.1717339352
   25      H      -3.5316569240    -2.2058978384     1.3743602400
   26      H      -4.7212518452    -0.2602982100     0.4141994919
   27      H      -3.4566518167     1.4737690722    -0.7852604230
   28      H      -1.3110653174     2.5708451850    -1.1943651372
   29      H       0.5586533562     0.4159962515    -2.2965532792
   30      H       0.5440755818     2.1992904753    -2.7017081739
 ----------------------------------------------------------------

    8    -618.0881783660      6.90e-06  Convergence criterion met
 Total energy in the final basis set =     -618.0881783660

                    Orbital Energies (a.u.)
 --------------------------------------------------------------

 Alpha MOs
 -- Occupied --
-10.1932 -10.1924 -10.1904 -10.1892 -10.1860 -10.1854 -10.1849 -10.1848
-10.1838 -10.1830 -10.1825 -10.1822 -10.1819 -10.1817 -10.1730 -10.1714
 -0.8763  -0.8513  -0.7923  -0.7835  -0.7739  -0.7296  -0.7240  -0.7128
 -0.6299  -0.6237  -0.6069  -0.5851  -0.5620  -0.5464  -0.5163  -0.4940
 -0.4738  -0.4712  -0.4534  -0.4478  -0.4339  -0.4290  -0.4186  -0.4140
 -0.4108  -0.3774  -0.3719  -0.3709  -0.3636  -0.3535  -0.3389  -0.3335
 -0.3273  -0.2999  -0.2736  -0.2606  -0.2404  -0.2257  -0.2143

          Ground-State Mulliken Net Atomic Charges

     Atom                 Charge (a.u.)
  ----------------------------------------
      1 C                    -0.341069
      2 C                    -0.124225
      3 C                     0.162544
      4 C                    -0.200195
      5 C                    -0.123605
      6 C                    -0.132798
      7 C                    -0.168086
      8 C                    -0.017981
      9 C                    -0.001489
     10 C                    -0.163157
     11 C                    -0.133059
     12 C                    -0.120871
     13 C                    -0.197146
     14 C                     0.135096
     15 C                    -0.131415
     16 C                    -0.328307
     17 H                     0.139112
     18 H                     0.139468
     19 H                     0.145799
     20 H                     0.128862
     21 H                     0.126426
     22 H                     0.127209
     23 H                     0.131900
     24 H                     0.134385
     25 H                     0.128748
     26 H                     0.128394
     27 H                     0.128037
     28 H                     0.130730
     29 H                     0.157794
     30 H                     0.138899
  ----------------------------------------
  Sum of atomic charges =     0.000000

                    Cartesian Multipole Moments
 -----------------------------------------------------------------
    Charge (ESU x 10^10)
                 0.0000
    Dipole Moment (Debye)
         X      -0.1801      Y      -0.0211      Z      -0.0266
       Tot       0.1833
    Quadrupole Moments (Debye-Ang)
        XX     -84.3573     XY      -0.5732     YY     -86.4767
        XZ      -2.7435     YZ      -0.1476     ZZ     -95.2299

 Total job time:  55.12s(wall), 54.96s(cpu)
        *  Thank you very much for using Q-Chem.  Have a nice day.  *
