 Q-Chem 5.2, Q-Chem, Inc., Pleasanton, CA (2019)
 Q-Chem 5.2.1 for Intel X86 EM64T Linux

User input:
--------------------------------------------------------------
$molecule
0 1
C         3.97534623020000    0.70886430640000    0.78296840390000
N         3.11230796440000    1.12966140690000   -0.30319371920000
C         1.73528751330000    1.01589285440000   -0.11249993830000
C         0.89150472290000    2.10830634800000   -0.13003096200000
C        -0.47940078240000    1.96190471200000    0.06873113970000
C        -1.05185961230000    0.72988945170000    0.29279377780000
C        -2.50573729410000    0.67623838410000    0.46187129770000
C        -3.33519711710000   -0.13309384410000   -0.17319746240000
F        -3.02455457640000   -1.06523791370000   -1.06820552030000
F        -4.66070047300000   -0.11198434800000   -0.01118814730000
C         1.16939366910000   -0.28523434260000    0.05995406460000
C        -0.22057804400000   -0.42345815570000    0.32420445700000
C        -0.71896137970000   -1.70758039400000    0.63085846600000
C         0.07910003540000   -2.81471771590000    0.56342291940000
C         1.41386923770000   -2.69267097310000    0.15819072300000
C         1.94701446270000   -1.45511544220000   -0.07240704330000
C         3.61100847070000    2.31283022190000   -0.96292917260000
H         3.48618682400000   -0.04838902360000    1.38903901150000
H         4.22771591110000    1.55803457980000    1.43324286970000
H         4.90462310100000    0.30114470650000    0.37893740900000
H         1.28476950450000    3.10198971540000   -0.27546477280000
H        -1.10668266810000    2.84183688750000    0.04589234610000
H        -2.96080128350000    1.41872000210000    1.10184247330000
H        -1.74857846210000   -1.81290750370000    0.93494654000000
H        -0.32196355320000   -3.78884881960000    0.80086546830000
H         2.02055880810000   -3.57823281690000    0.03889712860000
H         2.97240363070000   -1.36254853380000   -0.39293515600000
H         4.62428437850000    2.10443725840000   -1.30998400720000
H         3.65215965120000    3.19261571320000   -0.30516167330000
H         2.98882403240000    2.53888406790000   -1.82650831330000
$end

$rem
BASIS = 6-31G*
GUI = 2
METHOD = B3LYP
PRINT_ORBITALS false
MOLDEN_FORMAT false
--------------------------------------------------------------

             Standard Nuclear Orientation (Angstroms)
    I     Atom           X                Y                Z
 ----------------------------------------------------------------
    1      C      -3.8999664379     0.2699920468     0.7527722176
    2      N      -3.1524320924    -0.4511123915    -0.2585903273
    3      C      -1.7835282911    -0.6188513057    -0.0501226708
    4      C      -1.1996004285    -1.8633996045     0.0754629902
    5      C       0.1705034790    -1.9972496725     0.2881156610
    6      C       0.9994414057    -0.9021220704     0.3847191202
    7      C       2.4301183534    -1.1473602712     0.5802891958
    8      C       3.4153548505    -0.6169514391    -0.1227827062
    9      F       3.3145283656     0.2508759367    -1.1243516973
   10      F       4.7043828671    -0.9074914797     0.0712405725
   11      C      -0.9459670690     0.5387334033    -0.0127455455
   12      C       0.4410901309     0.4003574322     0.2663241063
   13      C       1.2093462265     1.5716476877     0.4373628807
   14      C       0.6730705828     2.8107050235     0.2267732861
   15      C      -0.6568865330     2.9364722725    -0.1928861390
   16      C      -1.4486938109     1.8266569482    -0.2944441687
   17      C      -3.8996461015    -1.5652187793    -0.7917691803
   18      H      -3.2554844877     0.9672148132     1.2805548828
   19      H      -4.3308270749    -0.4229937522     1.4888206425
   20      H      -4.7182221696     0.8209781565     0.2838333260
   21      H      -1.8013153009    -2.7575192287     0.0341819228
   22      H       0.5897274926    -2.9893197333     0.3794010873
   23      H       2.7128553387    -1.8922559758     1.3104367696
   24      H       2.2376827113     1.4844899935     0.7513729180
   25      H       1.2783106749     3.6947887508     0.3618390746
   26      H      -1.0550929825     3.9131189815    -0.4255141794
   27      H      -2.4701452810     1.9233638694    -0.6261285293
   28      H      -4.8434038847    -1.1825374200    -1.1835331075
   29      H      -4.1311102988    -2.3330258747    -0.0399243804
   30      H      -3.3439693261    -2.0194459816    -1.6096222959
 ----------------------------------------------------------------

    9    -795.7144211789      5.84e-06  Convergence criterion met
 Total energy in the final basis set =     -795.7144211789

                    Orbital Energies (a.u.)
 --------------------------------------------------------------

 Alpha MOs
 -- Occupied --
-24.7313 -24.7262 -14.3423 -10.3472 -10.2195 -10.2102 -10.2098 -10.1947
-10.1933 -10.1918 -10.1889 -10.1845 -10.1819 -10.1814 -10.1802 -10.1800
-10.1791  -1.2740  -1.2140  -0.9480  -0.8710  -0.8259  -0.7970  -0.7548
 -0.7415  -0.7232  -0.7123  -0.6635  -0.6221  -0.6152  -0.6122  -0.5756
 -0.5595  -0.5333  -0.5116  -0.5092  -0.5010  -0.4932  -0.4683  -0.4620
 -0.4571  -0.4345  -0.4327  -0.4267  -0.4219  -0.4121  -0.4080  -0.4027
 -0.3992  -0.3915  -0.3820  -0.3762  -0.3739  -0.3384  -0.3312  -0.3242
 -0.2963  -0.2512  -0.2417  -0.2341  -0.1858

          Ground-State Mulliken Net Atomic Charges

     Atom                 Charge (a.u.)
  ----------------------------------------
      1 C                    -0.321514
      2 N                    -0.458601
      3 C                     0.262063
      4 C                    -0.194443
      5 C                    -0.200146
      6 C                     0.120523
      7 C                    -0.350605
      8 C                     0.564420
      9 F                    -0.236038
     10 F                    -0.251950
     11 C                     0.094280
     12 C                     0.075970
     13 C                    -0.190767
     14 C                    -0.135181
     15 C                    -0.129813
     16 C                    -0.201950
     17 C                    -0.308628
     18 H                     0.176286
     19 H                     0.137282
     20 H                     0.152105
     21 H                     0.125239
     22 H                     0.125263
     23 H                     0.165110
     24 H                     0.128779
     25 H                     0.126710
     26 H                     0.125036
     27 H                     0.146725
     28 H                     0.154618
     29 H                     0.132861
     30 H                     0.166366
  ----------------------------------------
  Sum of atomic charges =     0.000000

                    Cartesian Multipole Moments
 -----------------------------------------------------------------
    Charge (ESU x 10^10)
                 0.0000
    Dipole Moment (Debye)
         X      -2.4043      Y      -0.6141      Z       0.7378
       Tot       2.5889
    Quadrupole Moments (Debye-Ang)
        XX     -91.6702     XY       1.3186     YY     -88.6307
        XZ       2.4314     YZ      -0.0075     ZZ     -99.3276

 Total job time:  61.99s(wall), 61.55s(cpu)
        *  Thank you very much for using Q-Chem.  Have a nice day.  *
