 Q-Chem 5.2, Q-Chem, Inc., Pleasanton, CA (2019)
 Q-Chem 5.2.1 for Intel X86 EM64T Linux

User input:
--------------------------------------------------------------
$molecule
0 1
C         2.85107662200000    2.34527856830000   -0.39432915720000
C         2.59073976850000    1.04573816890000   -0.47149387560000
C         1.30266341780000    0.44638893080000   -0.20352954200000
C         0.05879549860000    1.05211192130000   -0.27321474320000
N        -0.86754183270000    0.10771213910000   -0.03168817080000
C        -2.32036739940000    0.20554452990000   -0.01707014370000
C        -2.76285230870000    1.66152648280000   -0.13277146420000
C        -2.85249342760000   -0.61118523100000   -1.19924443230000
C        -2.81203698020000   -0.39505698820000    1.30280863180000
N        -0.30960606460000   -1.07745786780000    0.18630291430000
C         1.00493278040000   -0.91105975690000    0.10050298910000
C         1.88621007580000   -2.03445616120000    0.33673061050000
C         3.13915176830000   -1.95599748660000    0.76717354700000
H         3.82450476530000    2.74176886590000   -0.62690106400000
H         2.10582779670000    3.05934275710000   -0.08589335560000
H         3.36920635350000    0.35505283660000   -0.76861211070000
H        -0.19108603940000    2.06746734170000   -0.49830191070000
H        -2.46397503750000    2.08858151480000   -1.08734791380000
H        -2.34315057230000    2.25962977290000    0.67312727130000
H        -3.84659181860000    1.71059045970000   -0.06480497850000
H        -2.49866488650000   -0.19283222260000   -2.13938794610000
H        -3.93896893760000   -0.60859727260000   -1.20200108540000
H        -2.49898591040000   -1.63575771180000   -1.12051955590000
H        -2.45470058460000    0.19537790800000    2.14369354500000
H        -2.43041404340000   -1.40704417190000    1.40411465090000
H        -3.89798857980000   -0.41709882480000    1.32562465010000
H         1.42293281600000   -2.99894909610000    0.17384821310000
H         3.61214635210000   -1.01602782450000    0.99458314910000
H         3.73221574540000   -2.84045204780000    0.92802682470000
$end

$rem
BASIS = 6-31G*
GUI = 2
METHOD = B3LYP
PRINT_ORBITALS false
MOLDEN_FORMAT false
--------------------------------------------------------------

             Standard Nuclear Orientation (Angstroms)
    I     Atom           X                Y                Z
 ----------------------------------------------------------------
    1      C      -2.7098350147    -2.5685953792     0.1242954886
    2      C      -2.5433178766    -1.3024855830    -0.2387099485
    3      C      -1.3076787732    -0.5635497533    -0.1070477887
    4      C      -0.0219179086    -1.0743429009    -0.0372399931
    5      N       0.8284087933    -0.0329646691    -0.0089069095
    6      C       2.2839491368    -0.0155540132     0.0309198159
    7      C       2.8333625385    -1.4235517901     0.2424625116
    8      C       2.7779252687     0.5571825584    -1.3016348965
    9      C       2.7050676076     0.8973077484     1.1858586801
   10      N       0.1816070771     1.1256482675    -0.0609067443
   11      C      -1.1154381447     0.8459796714    -0.1111213100
   12      C      -2.0805201401     1.9242342415    -0.1324863725
   13      C      -3.3324964926     1.8488712765     0.3013055204
   14      H      -3.6471634653    -3.0787849449    -0.0170501194
   15      H      -1.9206850277    -3.1386263841     0.5855146041
   16      H      -3.3641082804    -0.7551829643    -0.6837926984
   17      H       0.3054830030    -2.0925850789    -0.0306706876
   18      H       2.5848164827    -2.0723785573    -0.5942982104
   19      H       2.4428372470    -1.8584636976     1.1598999724
   20      H       3.9162866154    -1.3746924466     0.3225015671
   21      H       2.4736723331    -0.0841254266    -2.1264002705
   22      H       3.8615591403     0.6357978731    -1.3008634051
   23      H       2.3493438220     1.5442231034    -1.4532358379
   24      H       2.3754980511     0.4822811961     2.1358728757
   25      H       2.2489309662     1.8749896226     1.0589943726
   26      H       3.7858936363     1.0054873272     1.2060963758
   27      H      -1.6856039709     2.8608780397    -0.5041619446
   28      H      -3.7401311884     0.9496111195     0.7304291551
   29      H      -3.9913416630     2.6998095706     0.2602495835
 ----------------------------------------------------------------

    9    -538.2578503775      4.32e-06  Convergence criterion met
 Total energy in the final basis set =     -538.2578503775

                    Orbital Energies (a.u.)
 --------------------------------------------------------------

 Alpha MOs
 -- Occupied --
-14.4068 -14.3342 -10.2425 -10.2120 -10.2001 -10.1894 -10.1840 -10.1839
-10.1775 -10.1768 -10.1743 -10.1731 -10.1697  -1.0558  -0.8687  -0.8046
 -0.7977  -0.7558  -0.7309  -0.7011  -0.6958  -0.6320  -0.6260  -0.5568
 -0.5521  -0.5398  -0.5037  -0.4732  -0.4716  -0.4562  -0.4396  -0.4349
 -0.4281  -0.4168  -0.4001  -0.3972  -0.3879  -0.3837  -0.3750  -0.3590
 -0.3477  -0.3446  -0.3405  -0.2978  -0.2937  -0.2742  -0.2266  -0.2058

          Ground-State Mulliken Net Atomic Charges

     Atom                 Charge (a.u.)
  ----------------------------------------
      1 C                    -0.359315
      2 C                    -0.114809
      3 C                    -0.024589
      4 C                     0.040288
      5 N                    -0.227074
      6 C                     0.176946
      7 C                    -0.469295
      8 C                    -0.435930
      9 C                    -0.440719
     10 N                    -0.382288
     11 C                     0.273695
     12 C                    -0.088396
     13 C                    -0.357715
     14 H                     0.137493
     15 H                     0.129995
     16 H                     0.136942
     17 H                     0.158080
     18 H                     0.154827
     19 H                     0.157349
     20 H                     0.160404
     21 H                     0.147786
     22 H                     0.143501
     23 H                     0.178325
     24 H                     0.148166
     25 H                     0.185977
     26 H                     0.140907
     27 H                     0.138760
     28 H                     0.149829
     29 H                     0.140859
  ----------------------------------------
  Sum of atomic charges =     0.000000

                    Cartesian Multipole Moments
 -----------------------------------------------------------------
    Charge (ESU x 10^10)
                 0.0000
    Dipole Moment (Debye)
         X       1.8559      Y      -1.3473      Z      -0.0386
       Tot       2.2937
    Quadrupole Moments (Debye-Ang)
        XX     -71.0073     XY      -2.6064     YY     -77.0917
        XZ       0.4492     YZ      -1.1895     ZZ     -81.2125

 Total job time:  45.12s(wall), 44.98s(cpu)
        *  Thank you very much for using Q-Chem.  Have a nice day.  *
