 Q-Chem 5.2, Q-Chem, Inc., Pleasanton, CA (2019)
 Q-Chem 5.2.1 for Intel X86 EM64T Linux

User input:
--------------------------------------------------------------
$molecule
0 1
C         4.55964081040000   -0.97350590030000   -0.01020513100000
C         3.80524743620000    0.11966669960000    0.00163510650000
C         2.35180751740000    0.16315239180000    0.00291539780000
C         1.53024498750000   -0.96724772240000    0.00636754170000
C         0.15790529970000   -0.82146420030000    0.00577475500000
C        -0.38501776040000    0.46696435450000    0.00172665980000
C        -1.80855983380000    0.76471280910000   -0.00054485490000
C        -2.82391572480000   -0.08523510290000   -0.00132395510000
F        -2.77212450880000   -1.41217283450000    0.00011137580000
F        -4.09781850860000    0.29374205350000   -0.00395764960000
N         0.39359695010000    1.55145416850000   -0.00026794540000
C         1.69749595360000    1.40152678040000    0.00055035470000
H         5.63400821510000   -0.91049730790000   -0.01114872060000
H         4.14670175270000   -1.96769848610000   -0.02026411230000
H         4.28209293100000    1.09216577630000    0.00991411860000
H         1.96074139320000   -1.95703972060000    0.01035764980000
H        -0.47783527720000   -1.69115191490000    0.00866452300000
H        -2.05219519740000    1.81640434470000   -0.00228283760000
H         2.26877753810000    2.32210013730000   -0.00119385910000
$end

$rem
BASIS = 6-31G*
GUI = 2
METHOD = B3LYP
PRINT_ORBITALS false
MOLDEN_FORMAT false
--------------------------------------------------------------

             Standard Nuclear Orientation (Angstroms)
    I     Atom           X                Y                Z
 ----------------------------------------------------------------
    1      C       4.4402239608    -0.9219849486    -0.0097460806
    2      C       3.6734368565     0.1625321646     0.0019181919
    3      C       2.2195960575     0.1894732090     0.0030816216
    4      C       1.4109518314    -0.9502037268     0.0065921060
    5      C       0.0370418806    -0.8200486565     0.0058776991
    6      C      -0.5205096170     0.4621168641     0.0016489305
    7      C      -1.9473480554     0.7436440968    -0.0007645236
    8      C      -2.9529646538    -0.1178048662    -0.0015304465
    9      F      -2.8860747017    -1.4440670441     0.0000517993
   10      F      -4.2310979503     0.2466488508    -0.0043032798
   11      N       0.2457119737     1.5553978291    -0.0004023852
   12      C       1.5512328178     1.4203202446     0.0005326991
   13      H       5.5138047348    -0.8467528909    -0.0106135358
   14      H       4.0386275877    -1.9208139748    -0.0197298536
   15      H       4.1391825661     1.1403962320     0.0101292645
   16      H       1.8526851054    -1.9350315971     0.0107220456
   17      H      -0.5887596161    -1.6969152535     0.0088120695
   18      H      -2.2029370610     1.7924944484    -0.0026345825
   19      H       2.1120002654     2.3473356861    -0.0012665728
 ----------------------------------------------------------------

    9    -601.5556444414      6.44e-06  Convergence criterion met
 Total energy in the final basis set =     -601.5556444414

                    Orbital Energies (a.u.)
 --------------------------------------------------------------

 Alpha MOs
 -- Occupied --
-24.7496 -24.7395 -14.3276 -10.3631 -10.2382 -10.2216 -10.2080 -10.2049
-10.2020 -10.1994 -10.1990 -10.1884  -1.2913  -1.2300  -0.9549  -0.8319
 -0.8143  -0.7787  -0.7390  -0.6650  -0.6399  -0.6276  -0.5807  -0.5705
 -0.5447  -0.5245  -0.5122  -0.4885  -0.4661  -0.4493  -0.4460  -0.4401
 -0.4258  -0.4140  -0.4136  -0.3997  -0.3897  -0.3572  -0.3353  -0.2897
 -0.2739  -0.2570  -0.2204

          Ground-State Mulliken Net Atomic Charges

     Atom                 Charge (a.u.)
  ----------------------------------------
      1 C                    -0.351598
      2 C                    -0.113806
      3 C                     0.147996
      4 C                    -0.150623
      5 C                    -0.180901
      6 C                     0.318568
      7 C                    -0.273327
      8 C                     0.553907
      9 F                    -0.235340
     10 F                    -0.242654
     11 N                    -0.490991
     12 C                    -0.014598
     13 H                     0.149567
     14 H                     0.143828
     15 H                     0.133761
     16 H                     0.140333
     17 H                     0.146256
     18 H                     0.179616
     19 H                     0.140004
  ----------------------------------------
  Sum of atomic charges =     0.000000

                    Cartesian Multipole Moments
 -----------------------------------------------------------------
    Charge (ESU x 10^10)
                 0.0000
    Dipole Moment (Debye)
         X       1.4128      Y      -1.1808      Z       0.0041
       Tot       1.8413
    Quadrupole Moments (Debye-Ang)
        XX     -62.7564     XY      -0.5918     YY     -65.0838
        XZ      -0.0062     YZ       0.0133     ZZ     -69.1560

 Total job time:  21.43s(wall), 21.35s(cpu)
        *  Thank you very much for using Q-Chem.  Have a nice day.  *
