 Q-Chem 5.2, Q-Chem, Inc., Pleasanton, CA (2019)
 Q-Chem 5.2.1 for Intel X86 EM64T Linux

User input:
--------------------------------------------------------------
$molecule
0 1
C        -4.06199890020000    0.76182533040000    0.02551801360000
C        -3.19905481760000   -0.24549819780000   -0.04448774370000
C        -1.74394043620000   -0.17841504570000   -0.02856990040000
C        -1.01092281620000   -1.36390190530000   -0.07910593460000
C         0.37582493140000   -1.43220721210000   -0.06235937310000
C         0.97941819510000   -2.76047557700000   -0.11283492300000
C         2.22202809880000   -3.11365477880000    0.19243347400000
C         1.12244283880000   -0.23035887510000   -0.01329417630000
O         2.46795744260000   -0.33353781380000   -0.03048988950000
C         3.28845507920000    0.81101675380000   -0.15359587500000
C         0.39876430110000    0.96177387330000    0.03580044850000
F         1.01988820460000    2.16634010460000    0.09776988790000
C        -0.98991469080000    0.99087866360000    0.03190628710000
F        -1.56553697110000    2.20538436000000    0.08452320470000
H        -5.12243083920000    0.57543839770000    0.00496555250000
H        -3.76581921070000    1.79154734650000    0.10534137900000
H        -3.58016683490000   -1.25663121860000   -0.12060626890000
H        -1.56081316300000   -2.29261494700000   -0.12641451990000
H         0.28260051320000   -3.53346113270000   -0.41485782820000
H         2.96322325090000   -2.41203971160000    0.52426833230000
H         2.52935721760000   -4.14389900820000    0.12325327010000
H         4.30212957630000    0.42285873600000   -0.24588173350000
H         3.22702739040000    1.45234418790000    0.72862767570000
H         3.04278246510000    1.39231771810000   -1.04509751760000
$end

$rem
BASIS = 6-31G*
GUI = 2
METHOD = B3LYP
PRINT_ORBITALS false
MOLDEN_FORMAT false
--------------------------------------------------------------

             Standard Nuclear Orientation (Angstroms)
    I     Atom           X                Y                Z
 ----------------------------------------------------------------
    1      C       4.1206433811     0.5574671017     0.0166068192
    2      C       2.9752447510     1.2274011560    -0.0427592261
    3      C       1.6223182509     0.6875664274    -0.0260337622
    4      C       0.5414537485     1.5681985325    -0.0643330991
    5      C      -0.7911831901     1.1786593558    -0.0455342356
    6      C      -1.7964871915     2.2365655582    -0.0825178817
    7      C      -3.0849798201     2.1608258818     0.2274078565
    8      C      -1.1030888238    -0.2017551840    -0.0073806981
    9      O      -2.4083186654    -0.5445464113    -0.0222255653
   10      C      -2.8094964736    -1.8934877945    -0.1556051900
   11      C      -0.0288795693    -1.0917110381     0.0294221970
   12      F      -0.2212621290    -2.4337291287     0.0803271631
   13      C       1.2928044721    -0.6646140006     0.0238534327
   14      F       2.2344516103    -1.6242043927     0.0641098951
   15      H       5.0615628528     1.0808757624    -0.0032000302
   16      H       4.1781484893    -0.5131387107     0.0867350277
   17      H       3.0040925155     2.3082113919    -0.1094482489
   18      H       0.7568771717     2.6261252315    -0.1031822684
   19      H      -1.3923098489     3.1976959079    -0.3777271515
   20      H      -3.5543271756     1.2523414152     0.5531644574
   21      H      -3.7128722386     3.0342816998     0.1685325253
   22      H      -3.8947541048    -1.8577252768    -0.2431050683
   23      H      -2.5379028609    -2.4871462029     0.7202939114
   24      H      -2.3907680206    -2.3544442122    -1.0529494310
 ----------------------------------------------------------------

    9    -700.0186195196      2.35e-06  Convergence criterion met
 Total energy in the final basis set =     -700.0186195196

                    Orbital Energies (a.u.)
 --------------------------------------------------------------

 Alpha MOs
 -- Occupied --
-24.7181 -24.7167 -19.1939 -10.2804 -10.2792 -10.2679 -10.2439 -10.2049
-10.2039 -10.1975 -10.1944 -10.1895 -10.1776 -10.1733  -1.2368  -1.2201
 -1.0841  -0.8797  -0.8097  -0.7878  -0.7509  -0.7354  -0.7045  -0.6451
 -0.6265  -0.5952  -0.5724  -0.5521  -0.5328  -0.5315  -0.4957  -0.4839
 -0.4712  -0.4683  -0.4616  -0.4529  -0.4450  -0.4277  -0.4202  -0.4072
 -0.3933  -0.3883  -0.3802  -0.3672  -0.3471  -0.3434  -0.3233  -0.3030
 -0.2716  -0.2311  -0.2098

          Ground-State Mulliken Net Atomic Charges

     Atom                 Charge (a.u.)
  ----------------------------------------
      1 C                    -0.361045
      2 C                    -0.109614
      3 C                     0.140177
      4 C                    -0.317906
      5 C                     0.149261
      6 C                    -0.117435
      7 C                    -0.346380
      8 C                     0.263539
      9 O                    -0.508774
     10 C                    -0.216482
     11 C                     0.273180
     12 F                    -0.294195
     13 C                     0.232641
     14 F                    -0.278049
     15 H                     0.140289
     16 H                     0.160337
     17 H                     0.130288
     18 H                     0.137976
     19 H                     0.127150
     20 H                     0.165003
     21 H                     0.135678
     22 H                     0.164400
     23 H                     0.166007
     24 H                     0.163952
  ----------------------------------------
  Sum of atomic charges =     0.000000

                    Cartesian Multipole Moments
 -----------------------------------------------------------------
    Charge (ESU x 10^10)
                 0.0000
    Dipole Moment (Debye)
         X      -1.1366      Y       0.3229      Z      -0.2110
       Tot       1.2003
    Quadrupole Moments (Debye-Ang)
        XX     -73.5894     XY       6.5770     YY     -74.5492
        XZ      -0.1243     YZ      -0.3178     ZZ     -81.8453

 Total job time:  39.49s(wall), 39.25s(cpu)
        *  Thank you very much for using Q-Chem.  Have a nice day.  *
