 Q-Chem 5.2, Q-Chem, Inc., Pleasanton, CA (2019)
 Q-Chem 5.2.1 for Intel X86 EM64T Linux

User input:
--------------------------------------------------------------
$molecule
0 1
C         2.43524645270000   -4.11671252500000   -0.81922102740000
C         2.75295525100000   -2.86086366460000   -1.12030907710000
C         2.30150779520000   -1.70045398950000   -0.40347501470000
C         2.60238149210000   -0.39239808840000   -0.67501686620000
C         2.02394075980000    0.53910140530000    0.21327973890000
C         2.15031831890000    2.01873912670000    0.01904516150000
C         1.74231076130000    2.45399750000000   -1.39512396130000
C         0.35784715130000    1.95041250250000   -1.80475998600000
C        -0.75194728660000    2.42461758320000   -0.86944688180000
C        -2.15372153460000    2.11576126690000   -1.39680471190000
C        -2.44300394240000    0.63018501360000   -1.62392420070000
C        -2.23838495640000   -0.26564362980000   -0.40113146670000
C        -3.05492553470000    0.12261219740000    0.83280910380000
C        -4.56970625320000    0.14931645280000    0.62384434660000
C        -5.14885082610000   -1.21114799500000    0.25426488060000
C         1.27629684560000   -0.07560722810000    1.19110220940000
C         0.53519749700000    0.46073370470000    2.30959572200000
C         0.86200833310000    1.53006440600000    3.02840863800000
S         1.26090532100000   -1.80773551840000    0.98316498320000
H         2.80484067610000   -4.94777293270000   -1.39310577890000
H         1.79299996110000   -4.34778000150000    0.01472375590000
H         3.40010420260000   -2.64565770480000   -1.96169786850000
H         3.23205198720000   -0.10588298110000   -1.49932116050000
H         3.18735092800000    2.32027545760000    0.19537398600000
H         1.52299668850000    2.53704124490000    0.74209742830000
H         2.47468108750000    2.08860267680000   -2.11805375160000
H         1.75833676900000    3.54594450710000   -1.43464213840000
H         0.37313310160000    0.85977536040000   -1.83131593870000
H         0.14605263560000    2.30415640650000   -2.81725550930000
H        -0.66656011270000    3.50741607500000   -0.74043180170000
H        -0.62680900920000    1.96564283650000    0.11142475600000
H        -2.29585051780000    2.63703869540000   -2.34776421860000
H        -2.88432252890000    2.52132857770000   -0.69375439810000
H        -1.80101799650000    0.25980308750000   -2.42628251450000
H        -3.47348635410000    0.53478067750000   -1.97315986470000
H        -1.18240553320000   -0.25815914440000   -0.12605239010000
H        -2.48357740810000   -1.29123182010000   -0.68495403950000
H        -2.73323700710000    1.10590129120000    1.18251126890000
H        -2.82844120350000   -0.59473251640000    1.62660910200000
H        -4.82439927890000    0.87501801130000   -0.15026509050000
H        -5.03474046580000    0.48953535150000    1.55301841390000
H        -4.78936551560000   -1.53793161830000   -0.71796690500000
H        -6.23492534070000   -1.16097211450000    0.21368477650000
H        -4.86783167020000   -1.95796471080000    0.99405873210000
H        -0.33878198150000   -0.11651783430000    2.58656353220000
H         1.75551019110000    2.10109465470000    2.84589368490000
H         0.24648360200000    1.85409240000000    3.84986237770000
$end

$rem
BASIS = 6-31G*
GUI = 2
METHOD = B3LYP
PRINT_ORBITALS false
MOLDEN_FORMAT false
--------------------------------------------------------------

             Standard Nuclear Orientation (Angstroms)
    I     Atom           X                Y                Z
 ----------------------------------------------------------------
    1      C       3.4933860861    -3.2498496518    -1.2172686943
    2      C       3.4851007299    -1.9256231782    -1.3401705006
    3      C       2.7480866929    -1.0230383950    -0.4997197223
    4      C       2.7100285879     0.3430305671    -0.5873403276
    5      C       1.9066810088     0.9711817112     0.3880645389
    6      C       1.6556736776     2.4476668256     0.3916938001
    7      C       1.1630572761     2.9545710068    -0.9707200720
    8      C      -0.0449708027     2.1812317460    -1.5005819014
    9      C      -1.2468362442     2.2317832855    -0.5602156119
   10      C      -2.5199265163     1.6567593903    -1.1823556495
   11      C      -2.4213141296     0.1909468937    -1.6111606168
   12      C      -2.0070554019    -0.7824315398    -0.5063872963
   13      C      -2.9060793493    -0.7814439371     0.7312901259
   14      C      -4.3762985030    -1.1061309992     0.4630104883
   15      C      -4.5885352702    -2.5051416277    -0.1031924328
   16      C       1.3306989690     0.0625056332     1.2456934711
   17      C       0.4681335470     0.2399634979     2.3912968831
   18      C       0.5070072126     1.2494741772     3.2552080510
   19      S       1.7565621423    -1.5738291807     0.8158189110
   20      H       4.0665132158    -3.8764984767    -1.8771486399
   21      H       2.9233964295    -3.7448801564    -0.4482477406
   22      H       4.0639171053    -1.4435659559    -2.1184011265
   23      H       3.2537181357     0.8867716202    -1.3402020356
   24      H       2.5808638792     2.9720654595     0.6495344663
   25      H       0.9111938197     2.6898388007     1.1480512353
   26      H       1.9704038593     2.8852359834    -1.7027660421
   27      H       0.9021968270     4.0108215179    -0.8684778624
   28      H       0.2464236822     1.1430142759    -1.6667805584
   29      H      -0.3306393495     2.6046098538    -2.4671652193
   30      H      -1.4397563918     3.2737669908    -0.2892170717
   31      H      -1.0180493953     1.6901419834     0.3577755940
   32      H      -2.7811981455     2.2498337936    -2.0634088129
   33      H      -3.3355679305     1.7677446597    -0.4647528668
   34      H      -1.6994404435     0.1050006080    -2.4264024257
   35      H      -3.3908930052    -0.1107638367    -2.0134651983
   36      H      -0.9898852751    -0.5485941270    -0.1877934237
   37      H      -1.9818631158    -1.7885344819    -0.9302126683
   38      H      -2.8471321024     0.1942994970     1.2182013374
   39      H      -2.5121510202    -1.5201212980     1.4349756067
   40      H      -4.7998033925    -0.3691595149    -0.2212945240
   41      H      -4.9204676499    -1.0220565872     1.4075641385
   42      H      -4.1494941094    -2.5968824719    -1.0931814966
   43      H      -5.6514773603    -2.7229878736    -0.1833132244
   44      H      -4.1339140286    -3.2511283492     0.5455180217
   45      H      -0.2334240704    -0.5694302593     2.5539907402
   46      H       1.2282005217     2.0449869207     3.1861247010
   47      H      -0.1776903913     1.2950058807     4.0845253227
 ----------------------------------------------------------------

    9   -1100.9293220827      2.46e-06  Convergence criterion met
 Total energy in the final basis set =    -1100.9293220827

                    Orbital Energies (a.u.)
 --------------------------------------------------------------

 Alpha MOs
 -- Occupied --
-88.8990 -10.2165 -10.2144 -10.1990 -10.1975 -10.1927 -10.1864 -10.1841
-10.1831 -10.1814 -10.1774 -10.1696 -10.1679 -10.1670 -10.1668 -10.1657
-10.1652 -10.1635 -10.1626  -7.9608  -5.9249  -5.9212  -5.9175  -0.8897
 -0.8166  -0.8064  -0.7969  -0.7760  -0.7664  -0.7393  -0.7187  -0.7047
 -0.6795  -0.6547  -0.6238  -0.6220  -0.5962  -0.5759  -0.5584  -0.5365
 -0.5260  -0.5167  -0.4940  -0.4769  -0.4694  -0.4593  -0.4541  -0.4449
 -0.4409  -0.4267  -0.4243  -0.4106  -0.4095  -0.3974  -0.3934  -0.3859
 -0.3815  -0.3746  -0.3697  -0.3660  -0.3583  -0.3510  -0.3453  -0.3423
 -0.3346  -0.3279  -0.3219  -0.3170  -0.3121  -0.3064  -0.3005  -0.2949
 -0.2922  -0.2691  -0.2438  -0.2004

          Ground-State Mulliken Net Atomic Charges

     Atom                 Charge (a.u.)
  ----------------------------------------
      1 C                    -0.374357
      2 C                    -0.055187
      3 C                    -0.133046
      4 C                    -0.178809
      5 C                     0.180826
      6 C                    -0.350231
      7 C                    -0.265272
      8 C                    -0.259610
      9 C                    -0.267631
     10 C                    -0.263119
     11 C                    -0.262727
     12 C                    -0.279639
     13 C                    -0.258957
     14 C                    -0.253300
     15 C                    -0.444687
     16 C                    -0.209801
     17 C                    -0.103887
     18 C                    -0.338873
     19 S                     0.228672
     20 H                     0.146647
     21 H                     0.156527
     22 H                     0.137144
     23 H                     0.136531
     24 H                     0.145559
     25 H                     0.155090
     26 H                     0.128570
     27 H                     0.131975
     28 H                     0.151871
     29 H                     0.124875
     30 H                     0.121422
     31 H                     0.153223
     32 H                     0.123717
     33 H                     0.130028
     34 H                     0.132722
     35 H                     0.128448
     36 H                     0.156057
     37 H                     0.130836
     38 H                     0.133095
     39 H                     0.122676
     40 H                     0.136443
     41 H                     0.127409
     42 H                     0.148955
     43 H                     0.140446
     44 H                     0.140731
     45 H                     0.148560
     46 H                     0.153784
     47 H                     0.146298
  ----------------------------------------
  Sum of atomic charges =     0.000000

                    Cartesian Multipole Moments
 -----------------------------------------------------------------
    Charge (ESU x 10^10)
                -0.0000
    Dipole Moment (Debye)
         X       0.3239      Y       0.8836      Z      -0.2545
       Tot       0.9749
    Quadrupole Moments (Debye-Ang)
        XX    -125.9144     XY       1.3841     YY    -122.9848
        XZ      -5.9386     YZ       1.5282     ZZ    -123.6238

 Total job time:  114.28s(wall), 113.90s(cpu)
        *  Thank you very much for using Q-Chem.  Have a nice day.  *
