 Q-Chem 5.2, Q-Chem, Inc., Pleasanton, CA (2019)
 Q-Chem 5.2.1 for Intel X86 EM64T Linux

User input:
--------------------------------------------------------------
$molecule
0 1
C         4.57658932880000   -0.02050623650000    2.09633031350000
C         3.29959003200000   -0.16857164830000    1.76819151630000
C         2.68898537750000    0.15170054660000    0.48151750840000
C         3.39217663210000    0.67718393540000   -0.60698803000000
C         2.70226679190000    0.94833428630000   -1.77410514300000
C         1.34447751390000    0.68411298270000   -1.83488980000000
C         0.72257849610000    0.15161503090000   -0.70373242310000
C        -0.72243729370000   -0.15300412780000   -0.70373183310000
C        -1.34488525640000   -0.68387960170000   -1.83535030670000
C        -2.70290143740000   -0.94699159380000   -1.77469886510000
C        -3.39249726510000   -0.67633385940000   -0.60727477440000
C        -2.68870806010000   -0.15274672490000    0.48175722720000
C        -3.29881938830000    0.16669478110000    1.76886514650000
C        -4.57687377210000    0.02418121920000    2.09539597230000
N        -1.38399151220000    0.09600037230000    0.41504345350000
N         1.38450615690000   -0.09825634720000    0.41463140660000
H         4.93576719030000   -0.28435987160000    3.07637814690000
H         5.31593403360000    0.36553229720000    1.41466885970000
H         2.59075949920000   -0.55986376200000    2.48492050420000
H         4.45022252760000    0.87296700430000   -0.53991169270000
H         3.21630136790000    1.36440356480000   -2.62952541640000
H         0.77633863760000    0.90482394660000   -2.72540812370000
H        -0.77704041900000   -0.90419390890000   -2.72615736400000
H        -3.21736516830000   -1.36178398390000   -2.63048473630000
H        -4.45069933310000   -0.87132006320000   -0.54028399660000
H        -2.58874416410000    0.55267645910000    2.48722935550000
H        -5.31753956580000   -0.35593373040000    1.41185876680000
H        -4.93562507540000    0.28708400350000    3.07584942050000
$end

$rem
BASIS = 6-31G*
GUI = 2
METHOD = B3LYP
PRINT_ORBITALS false
MOLDEN_FORMAT false
--------------------------------------------------------------

             Standard Nuclear Orientation (Angstroms)
    I     Atom           X                Y                Z
 ----------------------------------------------------------------
    1      C       4.5563781593     2.0861069867     0.4324075427
    2      C       3.2712028119     1.7580946170     0.4649321837
    3      C       2.6917754988     0.4714820195     0.0909878856
    4      C       3.4393013726    -0.6170920496    -0.3690845040
    5      C       2.7764813408    -1.7841399988    -0.7012428182
    6      C       1.4004157000    -1.8447904913    -0.5603021739
    7      C       0.7332249878    -0.7135726721    -0.0859265132
    8      C      -0.7333431452    -0.7134293561     0.0873979086
    9      C      -1.4011577947    -1.8449873178     0.5600825584
   10      C      -2.7773375930    -1.7842016871     0.6998993509
   11      C      -3.4396588929    -0.6167084765     0.3682864424
   12      C      -2.6914933262     0.4722549197    -0.0898188288
   13      C      -3.2702501453     1.7594241856    -0.4628621636
   14      C      -4.5559120128     2.0860815540    -0.4359543637
   15      N      -1.3696903430     0.4054122138    -0.2201263217
   16      N       1.3700868109     0.4047248240     0.2225201074
   17      H       4.8904468290     3.0661185116     0.7275291578
   18      H       5.3274001791     1.4043730711     0.1144726550
   19      H       2.5301017293     2.4748930243     0.7908461499
   20      H       4.5106810416    -0.5501202836    -0.4688429600
   21      H       3.3257934608    -2.6396102902    -1.0693675380
   22      H       0.8543599051    -2.7352518654    -0.8312627012
   23      H      -0.8555348945    -2.7358512858     0.8306013339
   24      H      -3.3271310320    -2.6399374862     1.0666942954
   25      H      -4.5111091514    -0.5496131107     0.4672387345
   26      H      -2.5282457980     2.4777188317    -0.7833589132
   27      H      -5.3278513025     1.4026169627    -0.1240534345
   28      H      -4.8894480087     3.0665712564    -0.7300683190
 ----------------------------------------------------------------

    9    -650.1767245921      3.48e-06  Convergence criterion met
 Total energy in the final basis set =     -650.1767245921

                    Orbital Energies (a.u.)
 --------------------------------------------------------------

 Alpha MOs
 -- Occupied --
-14.3178 -14.3178 -10.2235 -10.2235 -10.2227 -10.2224 -10.2045 -10.2045
-10.1948 -10.1948 -10.1943 -10.1943 -10.1844 -10.1844 -10.1820 -10.1820
 -0.9580  -0.9375  -0.8144  -0.8070  -0.8019  -0.7890  -0.7517  -0.7228
 -0.6595  -0.6441  -0.6367  -0.6049  -0.5801  -0.5477  -0.5197  -0.5062
 -0.5050  -0.4827  -0.4721  -0.4538  -0.4466  -0.4257  -0.4237  -0.4143
 -0.4069  -0.4052  -0.3947  -0.3809  -0.3670  -0.3542  -0.3496  -0.3144
 -0.3025  -0.2918  -0.2703  -0.2487  -0.2447  -0.2377  -0.2235

          Ground-State Mulliken Net Atomic Charges

     Atom                 Charge (a.u.)
  ----------------------------------------
      1 C                    -0.347714
      2 C                    -0.091836
      3 C                     0.306364
      4 C                    -0.173195
      5 C                    -0.102130
      6 C                    -0.167576
      7 C                     0.250456
      8 C                     0.250426
      9 C                    -0.167599
     10 C                    -0.102140
     11 C                    -0.173199
     12 C                     0.306352
     13 C                    -0.091849
     14 C                    -0.347708
     15 N                    -0.527000
     16 N                    -0.527024
     17 H                     0.149347
     18 H                     0.141181
     19 H                     0.150628
     20 H                     0.134690
     21 H                     0.139194
     22 H                     0.137632
     23 H                     0.137636
     24 H                     0.139196
     25 H                     0.134692
     26 H                     0.150651
     27 H                     0.141177
     28 H                     0.149348
  ----------------------------------------
  Sum of atomic charges =     0.000000

                    Cartesian Multipole Moments
 -----------------------------------------------------------------
    Charge (ESU x 10^10)
                 0.0000
    Dipole Moment (Debye)
         X      -0.0007      Y      -2.4621      Z      -0.0030
       Tot       2.4621
    Quadrupole Moments (Debye-Ang)
        XX     -72.7716     XY       0.0066     YY     -82.5388
        XZ      -2.9572     YZ       0.0062     ZZ     -95.2306

 Total job time:  45.18s(wall), 45.04s(cpu)
        *  Thank you very much for using Q-Chem.  Have a nice day.  *
