 Q-Chem 5.2, Q-Chem, Inc., Pleasanton, CA (2019)
 Q-Chem 5.2.1 for Intel X86 EM64T Linux

User input:
--------------------------------------------------------------
$molecule
0 1
C        -4.25048417200000    1.39132823720000   -0.00056426800000
C        -2.92084705040000    1.38013746760000   -0.00014793750000
C        -2.06964600440000    0.20465082440000    0.00008819930000
C        -2.51797503170000   -1.09850742700000    0.00033337920000
C        -1.64484016290000   -2.19208097540000    0.00040785520000
C        -0.26873584370000   -2.07212819820000    0.00022787940000
C         0.55417562760000   -3.26613401920000    0.00011316450000
C         1.88310984130000   -3.31306734560000   -0.00086738510000
C         0.24811661030000   -0.74362608800000    0.00012590880000
N         1.53099506530000   -0.40275298460000    0.00015446820000
Se        1.67329393510000    1.34185770330000    0.00003115410000
N        -0.05795765810000    1.56946142000000    0.00002044530000
C        -0.65692974480000    0.38517914900000    0.00008686390000
H        -4.79881930520000    2.31730104700000   -0.00089293860000
H        -4.84323825020000    0.49236948320000   -0.00066620620000
H        -2.37522074220000    2.31400250210000   -0.00005572850000
H        -3.57891993670000   -1.29516217970000    0.00037267210000
H        -2.07397023000000   -3.18448215470000    0.00054279910000
H        -0.01195905530000   -4.19069827640000    0.00075237390000
H         2.47921694560000   -2.41868783930000   -0.00156201960000
H         2.40508700130000   -4.25517245910000   -0.00102259960000
$end

$rem
BASIS = 6-31G*
GUI = 2
METHOD = B3LYP
PRINT_ORBITALS false
MOLDEN_FORMAT false
--------------------------------------------------------------

             Standard Nuclear Orientation (Angstroms)
    I     Atom           X                Y                Z
 ----------------------------------------------------------------
    1      C       4.3591479983     0.4397338104     0.0005602892
    2      C       3.0675753756     0.7558038440     0.0001408535
    3      C       1.9534873393    -0.1743143829    -0.0000962329
    4      C       2.0676470463    -1.5476999469    -0.0003392044
    5      C       0.9524384267    -2.3930267118    -0.0004147542
    6      C      -0.3519307831    -1.9384139846    -0.0002381090
    7      C      -1.4431509545    -2.8934384492    -0.0001242610
    8      C      -2.7428302557    -2.6121866022     0.0008532168
    9      C      -0.5262791647    -0.5236147203    -0.0001385299
   10      N      -1.6859666900     0.1222153242    -0.0001703978
   11      Se     -1.3949507576     1.8482585300    -0.0000489674
   12      N       0.3391173026     1.6432134298    -0.0000344048
   13      C       0.6285237514     0.3480161607    -0.0000983677
   14      H       5.1183193649     1.2024630538     0.0008894216
   15      H       4.7126796775    -0.5773697193     0.0006644150
   16      H       2.7683071733     1.7951548499     0.0000465363
   17      H       3.0476726330    -1.9991720201    -0.0003758369
   18      H       1.1243942264    -3.4604740963    -0.0005478108
   19      H      -1.1217171451    -3.9288165704    -0.0007613224
   20      H      -3.1007379321    -1.5986973426     0.0015456599
   21      H      -3.4804192049    -3.3970335571     0.0010080456
 ----------------------------------------------------------------

   10   -2896.6085198121      8.29e-06  Convergence criterion met
 Total energy in the final basis set =    -2896.6085198121

                    Orbital Energies (a.u.)
 --------------------------------------------------------------

 Alpha MOs
 -- Occupied --
******** -58.1608 -52.2185 -52.2165 -52.2157 -14.3588 -14.3576 -10.2373
-10.2365 -10.2076 -10.2071 -10.2017 -10.2006 -10.1904 -10.1889 -10.1841
-10.1734  -7.8961  -5.8415  -5.8350  -5.8308  -2.1742  -2.1733  -2.1688
 -2.1638  -2.1636  -0.9951  -0.8815  -0.8652  -0.8037  -0.7680  -0.7562
 -0.7185  -0.6547  -0.6269  -0.6012  -0.5793  -0.5403  -0.5046  -0.4937
 -0.4828  -0.4570  -0.4418  -0.4413  -0.4191  -0.3994  -0.3865  -0.3756
 -0.3690  -0.3613  -0.3560  -0.3478  -0.3016  -0.2898  -0.2795  -0.2695
 -0.2599  -0.2059

          Ground-State Mulliken Net Atomic Charges

     Atom                 Charge (a.u.)
  ----------------------------------------
      1 C                    -0.348682
      2 C                    -0.103867
      3 C                     0.185090
      4 C                    -0.217082
      5 C                    -0.228016
      6 C                     0.205713
      7 C                    -0.118625
      8 C                    -0.355019
      9 C                     0.219924
     10 N                    -0.531907
     11 Se                    0.450059
     12 N                    -0.516190
     13 C                     0.185682
     14 H                     0.149304
     15 H                     0.141961
     16 H                     0.161550
     17 H                     0.135034
     18 H                     0.137073
     19 H                     0.123777
     20 H                     0.186852
     21 H                     0.137370
  ----------------------------------------
  Sum of atomic charges =     0.000000

                    Cartesian Multipole Moments
 -----------------------------------------------------------------
    Charge (ESU x 10^10)
                 0.0000
    Dipole Moment (Debye)
         X       0.5079      Y      -0.4804      Z       0.0004
       Tot       0.6991
    Quadrupole Moments (Debye-Ang)
        XX     -80.1454     XY      -5.1653     YY     -78.2220
        XZ      -0.0013     YZ       0.0015     ZZ     -89.9107

 Total job time:  48.25s(wall), 48.10s(cpu)
        *  Thank you very much for using Q-Chem.  Have a nice day.  *
