 Q-Chem 5.4, Q-Chem, Inc., Pleasanton, CA (2021)
 Q-Chem 5.4.2 for Intel X86 EM64T Linux

User input:
--------------------------------------------------------------
$molecule
0 1
C           -4.40362713500000        0.79821382580000        0.60237920160000
C           -3.67479534330000       -0.08575068500000       -0.06452157030000
C           -2.21315522620000       -0.14394590560000       -0.11712178890000
C           -1.62559613530000       -1.40860106320000       -0.06054351980000
C           -0.25800179130000       -1.60522743330000       -0.06764180090000
C            0.29648683550000       -2.99529542270000        0.02831115510000
C            0.57635808020000       -0.47875407310000       -0.15662990580000
C            2.02267030460000       -0.64873392070000       -0.17834700890000
C            2.94575676940000        0.25777925030000        0.10251212470000
F            2.77134304460000        1.51760398340000        0.48798755910000
F            4.25522950180000        0.00417551740000        0.04858592280000
C           -0.00874032290000        0.78149068350000       -0.25569042270000
C           -1.38108535840000        0.97571226980000       -0.23660323990000
C           -1.90869013600000        2.37058729100000       -0.38701677700000
H           -5.47943471290000        0.74429296970000        0.61072616290000
H           -3.96351193860000        1.58546684590000        1.18852409420000
H           -4.17412956420000       -0.89332510920000       -0.58784240860000
H           -2.27537646380000       -2.27025682130000        0.01194807750000
H           -0.50895730910000       -3.71502525970000        0.14984493180000
H            0.96978876390000       -3.08692296890000        0.87924109780000
H            0.84944607730000       -3.25537153530000       -0.87430245460000
H            2.40829398140000       -1.62178097150000       -0.44084658400000
H            0.62408963870000        1.64812185800000       -0.36645940630000
H           -1.22199972380000        2.96714554290000       -0.98397208210000
H           -2.00114570100000        2.85054380060000        0.58713959570000
H           -2.88620159690000        2.37118577180000       -0.86293341490000
$end

$rem
BASIS = 6-31G*
GUI = 2
METHOD = B3LYP
PRINT_ORBITALS false
MOLDEN_FORMAT false
$end
--------------------------------------------------------------

             Standard Nuclear Orientation (Angstroms)
    I     Atom           X                Y                Z
 ----------------------------------------------------------------
    1      C       4.3296695085    -0.5127848126     0.6186259322
    2      C       3.5410143650     0.3251246079    -0.0396115207
    3      C       2.0792478570     0.2773952921    -0.0988220526
    4      C       1.4007896480     1.4949371472    -0.0276480184
    5      C       0.0225365586     1.5914622409    -0.0389587467
    6      C      -0.6322462929     2.9359199699     0.0734977090
    7      C      -0.7270724775     0.4085639139    -0.1478410239
    8      C      -2.1818303891     0.4729878647    -0.1745394300
    9      C      -3.0374710039    -0.5022897061     0.0889931139
   10      F      -2.7731982261    -1.7514160444     0.4577926611
   11      F      -4.3617237126    -0.3440422581     0.0319472172
   12      C      -0.0512178919    -0.8041540905    -0.2614438173
   13      C       1.3315492123    -0.8981055651    -0.2380879250
   14      C       1.9600913619    -2.2485406325    -0.4052024158
   15      H       5.3986362754    -0.3807352052     0.6331871021
   16      H       3.9457741633    -1.3382834775     1.1915228313
   17      H       3.9822337394     1.1743093986    -0.5491078105
   18      H       1.9856940093     2.4005330599     0.0601191933
   19      H       0.1180588357     3.7106269410     0.2091188367
   20      H      -1.3138809918     2.9661125122     0.9221881172
   21      H      -1.1990392104     3.1678358844    -0.8282093571
   22      H      -2.6363306571     1.4189856484    -0.4254376361
   23      H      -0.6186991537    -1.7129314120    -0.3874672997
   24      H       1.3211657499    -2.8849922548    -1.0138767961
   25      H       2.0833582788    -2.7343066588     0.5626423838
   26      H       2.9369636733    -2.1711270929    -0.8761092980
 ----------------------------------------------------------------

    9    -664.1437760001      6.70e-06  Convergence criterion met
 Total energy in the final basis set =     -664.1437760001

                    Orbital Energies (a.u.)
 --------------------------------------------------------------

 Alpha MOs
 -- Occupied --
-24.7409 -24.7312 -10.3540 -10.1993 -10.1982 -10.1919 -10.1901 -10.1888
-10.1884 -10.1830 -10.1805 -10.1789 -10.1786 -10.1742  -1.2816  -1.2208
 -0.8711  -0.8181  -0.7854  -0.7734  -0.7242  -0.7200  -0.6577  -0.6440
 -0.6094  -0.5966  -0.5704  -0.5404  -0.5204  -0.5158  -0.4918  -0.4717
 -0.4549  -0.4388  -0.4340  -0.4325  -0.4284  -0.4208  -0.4151  -0.4084
 -0.4020  -0.3931  -0.3769  -0.3694  -0.3509  -0.3367  -0.3299  -0.3020
 -0.2641  -0.2370  -0.2088

          Ground-State Mulliken Net Atomic Charges

     Atom                 Charge (a.u.)
  ----------------------------------------
      1 C                    -0.336596
      2 C                    -0.140124
      3 C                     0.116813
      4 C                    -0.264465
      5 C                     0.132269
      6 C                    -0.538780
      7 C                     0.148715
      8 C                    -0.312921
      9 C                     0.550407
     10 F                    -0.235455
     11 F                    -0.251192
     12 C                    -0.265167
     13 C                     0.131562
     14 C                    -0.536038
     15 H                     0.141813
     16 H                     0.148185
     17 H                     0.133406
     18 H                     0.118470
     19 H                     0.159572
     20 H                     0.165785
     21 H                     0.162111
     22 H                     0.160400
     23 H                     0.127423
     24 H                     0.154316
     25 H                     0.161694
     26 H                     0.167796
  ----------------------------------------
  Sum of atomic charges =     0.000000

                    Cartesian Multipole Moments
 -----------------------------------------------------------------
    Charge (ESU x 10^10)
                 0.0000
    Dipole Moment (Debye)
         X       0.8226      Y       0.8499      Z      -0.1851
       Tot       1.1972
    Quadrupole Moments (Debye-Ang)
        XX     -80.1520     XY      -2.2977     YY     -75.2178
        XZ       0.7862     YZ      -0.6020     ZZ     -82.2627

 Total job time:  67.31s(wall), 62.97s(cpu)
        *  Thank you very much for using Q-Chem.  Have a nice day.  *
