 Q-Chem 5.2, Q-Chem, Inc., Pleasanton, CA (2019)
 Q-Chem 5.2.1 for Intel X86 EM64T Linux

User input:
--------------------------------------------------------------
$molecule
0 1
C         2.89847100300000    1.23881477720000   -0.28813144300000
C         2.50313712830000    0.13250353950000    0.32487763150000
C         1.21003876370000   -0.52944352440000    0.14949322950000
C         1.18048200370000   -1.92132959550000    0.12167308300000
C        -0.00012139630000   -2.60321216090000   -0.10651424820000
C        -1.18068691650000   -1.90489613920000   -0.27827074860000
C        -1.21008973770000   -0.51538900990000   -0.19220176500000
C        -2.50310459250000    0.15876653200000   -0.31320748400000
C        -2.89834780850000    1.21123818880000    0.38831249960000
C        -0.00001697560000    0.17382699830000    0.00729454440000
C        -0.00002398730000    1.58631326950000    0.06509661070000
N         0.00021382310000    2.73321891160000    0.11179548000000
H         3.88082752400000    1.64734820490000   -0.12319980790000
H         2.27121463910000    1.77227495110000   -0.98096947170000
H         3.19069610010000   -0.39471476470000    0.97590974690000
H         2.10370549570000   -2.46671352750000    0.25289978600000
H        -0.00007614490000   -3.68220463470000   -0.15052487060000
H        -2.10399507920000   -2.43757961100000   -0.45352818260000
H        -3.19060249300000   -0.31340614130000   -1.00523654110000
H        -2.27100456080000    1.68613301680000    1.12230678180000
H        -3.88060860080000    1.63207021090000    0.25755904090000
$end

$rem
BASIS = 6-31G*
GUI = 2
METHOD = B3LYP
PRINT_ORBITALS false
MOLDEN_FORMAT false
--------------------------------------------------------------

             Standard Nuclear Orientation (Angstroms)
    I     Atom           X                Y                Z
 ----------------------------------------------------------------
    1      C       2.8922677561    -1.2412442683     0.3884432963
    2      C       2.5082743041    -0.1609380353    -0.2759970881
    3      C       1.2127797778     0.5075592953    -0.1501311447
    4      C       1.1836578810     1.8994176046    -0.1797412709
    5      C      -0.0002548597     2.5899981226    -0.0000002073
    6      C      -1.1840597602     1.8992269233     0.1797819299
    7      C      -1.2128838335     0.5073613244     0.1500870555
    8      C      -2.5082314247    -0.1613500482     0.2762425609
    9      C      -2.8920205450    -1.2416404226    -0.3883796578
   10      C      -0.0000050851    -0.1893721025    -0.0001835223
   11      C       0.0000603875    -1.6030405717    -0.0001933470
   12      N       0.0003529687    -2.7508965095     0.0000376909
   13      H       3.8770521781    -1.6561283852     0.2573053847
   14      H       2.2528222708    -1.7459671861     1.0915927006
   15      H       3.2072892804     0.3392603513    -0.9360871821
   16      H       2.1093609388     2.4390282635    -0.3172181146
   17      H      -0.0002625020     3.6698877822    -0.0001360119
   18      H      -2.1099013141     2.4385824428     0.3171786307
   19      H      -3.2072383400     0.3386830720     0.9364401250
   20      H      -2.2524383019    -1.7461120477    -1.0914267318
   21      H      -3.8766625812    -1.6568256565    -0.2574842644
 ----------------------------------------------------------------

    9    -479.2789600164      3.55e-06  Convergence criterion met
 Total energy in the final basis set =     -479.2789600164

                    Orbital Energies (a.u.)
 --------------------------------------------------------------

 Alpha MOs
 -- Occupied --
-14.3234 -10.2307 -10.2210 -10.2210 -10.2179 -10.2087 -10.2042 -10.2042
-10.1989 -10.1989 -10.1884 -10.1884  -0.9111  -0.8835  -0.8203  -0.7983
 -0.7595  -0.7391  -0.6671  -0.6344  -0.5985  -0.5688  -0.5424  -0.4971
 -0.4926  -0.4700  -0.4610  -0.4416  -0.4337  -0.4000  -0.3921  -0.3864
 -0.3699  -0.3674  -0.3511  -0.3443  -0.3190  -0.3161  -0.2867  -0.2480
 -0.2385

          Ground-State Mulliken Net Atomic Charges

     Atom                 Charge (a.u.)
  ----------------------------------------
      1 C                    -0.321487
      2 C                    -0.137825
      3 C                     0.161081
      4 C                    -0.201910
      5 C                    -0.105587
      6 C                    -0.201900
      7 C                     0.161028
      8 C                    -0.137802
      9 C                    -0.321515
     10 C                     0.048397
     11 C                     0.202872
     12 N                    -0.497179
     13 H                     0.151234
     14 H                     0.172887
     15 H                     0.140796
     16 H                     0.139890
     17 H                     0.142181
     18 H                     0.139895
     19 H                     0.140808
     20 H                     0.172889
     21 H                     0.151247
  ----------------------------------------
  Sum of atomic charges =     0.000000

                    Cartesian Multipole Moments
 -----------------------------------------------------------------
    Charge (ESU x 10^10)
                 0.0000
    Dipole Moment (Debye)
         X      -0.0007      Y       3.8924      Z      -0.0003
       Tot       3.8924
    Quadrupole Moments (Debye-Ang)
        XX     -58.8468     XY       0.0020     YY     -73.5701
        XZ      -1.5704     YZ       0.0001     ZZ     -70.4195

 Total job time:  27.98s(wall), 27.88s(cpu)
        *  Thank you very much for using Q-Chem.  Have a nice day.  *
