 Q-Chem 5.2, Q-Chem, Inc., Pleasanton, CA (2019)
 Q-Chem 5.2.1 for Intel X86 EM64T Linux

User input:
--------------------------------------------------------------
$molecule
0 1
C         3.49756595460000    1.32513016920000   -0.46080484990000
C         2.36301736060000    1.52858799680000    0.19453590840000
C         1.18710464400000    0.68109975440000    0.13282647090000
C        -0.11218336100000    1.15161186200000    0.20004724530000
N        -0.93992723830000    0.10608884640000    0.01190179760000
C        -2.39452293630000    0.13239730100000   -0.01045821560000
C        -2.85410959090000    1.04234317030000   -1.15449449450000
C        -2.89857236380000   -1.29066168620000   -0.23679556240000
C        -2.90002727980000    0.66225234900000    1.33532775920000
N        -0.26199479260000   -1.01849559520000   -0.16058516210000
C         1.02996585700000   -0.71687038760000   -0.08530356420000
C         1.98776530130000   -1.80305180470000   -0.15252985890000
C         3.19202340340000   -1.81436754590000    0.40287570290000
H         4.31929746400000    2.01770464880000   -0.39196043390000
H         3.64305257880000    0.46378581130000   -1.09011488740000
H         2.23852681080000    2.42620409330000    0.79023402530000
H        -0.46802221420000    2.15169301660000    0.34699400050000
H        -2.45596370350000    0.68421679090000   -2.10116884850000
H        -2.51478504940000    2.06404025860000   -1.00198676580000
H        -3.93926964900000    1.04557194520000   -1.21284183810000
H        -2.52064582580000   -1.67743289560000   -1.17851387010000
H        -3.98492453970000   -1.29871964460000   -0.25674181380000
H        -2.55029673510000   -1.94323652840000    0.55833575830000
H        -2.56494112570000    1.68258050270000    1.50506440670000
H        -2.53140871350000    0.03804642600000    2.14618576100000
H        -3.98652663800000    0.65020506260000    1.35393452530000
H         1.60622899800000   -2.68377366510000   -0.65298717680000
H         3.58065960020000   -0.96879123220000    0.94418972960000
H         3.83013903720000   -2.67940852670000    0.33863637780000
$end

$rem
BASIS = 6-31G*
GUI = 2
METHOD = B3LYP
PRINT_ORBITALS false
MOLDEN_FORMAT false
--------------------------------------------------------------

             Standard Nuclear Orientation (Angstroms)
    I     Atom           X                Y                Z
 ----------------------------------------------------------------
    1      C       3.4642135619     1.5041474106    -0.4626026702
    2      C       2.3205954519     1.6460478248     0.1931937922
    3      C       1.1921128467     0.7363314043     0.1318901461
    4      C      -0.1306491927     1.1360301468     0.1996477901
    5      N      -0.9008319065     0.0473641354     0.0117597511
    6      C      -2.3547360752    -0.0048718117    -0.0100306959
    7      C      -2.8632140234     0.8789908739    -1.1538302040
    8      C      -2.7813349314    -1.4530515915    -0.2362607611
    9      C      -2.8875715213     0.4968718437     1.3359858697
   10      N      -0.1632597516    -1.0389848234    -0.1610626275
   11      C       1.1105681111    -0.6680730868    -0.0862664720
   12      C       2.1255680461    -1.7009744942    -0.1539350446
   13      C       3.3288999523    -1.6473010839     0.4009995904
   14      H       4.2473949784     2.2400598038    -0.3940355114
   15      H       3.6557288407     0.6519369247    -1.0920236500
   16      H       2.1480747791     2.5356117789     0.7889969385
   17      H      -0.5398876353     2.1154422886     0.3467963802
   18      H      -2.4466920788     0.5429146064    -2.1006824606
   19      H      -2.5794668098     1.9175063554    -1.0013906895
   20      H      -3.9469895485     0.8236494552    -1.2117536671
   21      H      -2.3834549060    -1.8188224176    -1.1781508798
   22      H      -3.8656765716    -1.5197292365    -0.2557833797
   23      H      -2.3980337125    -2.0859114549     0.5586934667
   24      H      -2.6079758583     1.5337909136     1.5056558703
   25      H      -2.4854819503    -0.1065631631     2.1466606197
   26      H      -3.9718296576     0.4262011320     1.3550160720
   27      H       1.7919250990    -2.6009839374    -0.6542987714
   28      H       3.6715453747    -0.7820044740     0.9422150397
   29      H       4.0127479069    -2.4766383755     0.3364567121
 ----------------------------------------------------------------

    9    -538.2520568666      4.27e-06  Convergence criterion met
 Total energy in the final basis set =     -538.2520568666

                    Orbital Energies (a.u.)
 --------------------------------------------------------------

 Alpha MOs
 -- Occupied --
-14.4040 -14.3350 -10.2422 -10.2100 -10.1983 -10.1850 -10.1842 -10.1839
-10.1791 -10.1789 -10.1734 -10.1678 -10.1664  -1.0552  -0.8689  -0.8031
 -0.7954  -0.7522  -0.7308  -0.7034  -0.6948  -0.6279  -0.6213  -0.5740
 -0.5450  -0.5216  -0.5046  -0.4749  -0.4684  -0.4609  -0.4450  -0.4283
 -0.4250  -0.4130  -0.4011  -0.3953  -0.3898  -0.3774  -0.3751  -0.3568
 -0.3477  -0.3462  -0.3414  -0.2944  -0.2899  -0.2716  -0.2258  -0.2034

          Ground-State Mulliken Net Atomic Charges

     Atom                 Charge (a.u.)
  ----------------------------------------
      1 C                    -0.344315
      2 C                    -0.134889
      3 C                    -0.014964
      4 C                     0.030613
      5 N                    -0.220929
      6 C                     0.167326
      7 C                    -0.437666
      8 C                    -0.436563
      9 C                    -0.438602
     10 N                    -0.370864
     11 C                     0.267016
     12 C                    -0.101182
     13 C                    -0.350678
     14 H                     0.135283
     15 H                     0.153881
     16 H                     0.123127
     17 H                     0.154906
     18 H                     0.163370
     19 H                     0.145446
     20 H                     0.150614
     21 H                     0.167062
     22 H                     0.138923
     23 H                     0.167912
     24 H                     0.144815
     25 H                     0.163682
     26 H                     0.151033
     27 H                     0.135666
     28 H                     0.153287
     29 H                     0.136690
  ----------------------------------------
  Sum of atomic charges =     0.000000

                    Cartesian Multipole Moments
 -----------------------------------------------------------------
    Charge (ESU x 10^10)
                 0.0000
    Dipole Moment (Debye)
         X      -2.0319      Y       1.5656      Z       0.2440
       Tot       2.5767
    Quadrupole Moments (Debye-Ang)
        XX     -71.5093     XY      -1.3516     YY     -77.0590
        XZ      -0.1618     YZ       1.8906     ZZ     -80.1168

 Total job time:  44.89s(wall), 44.74s(cpu)
        *  Thank you very much for using Q-Chem.  Have a nice day.  *
