 Q-Chem 5.2, Q-Chem, Inc., Pleasanton, CA (2019)
 Q-Chem 5.2.1 for Intel X86 EM64T Linux

User input:
--------------------------------------------------------------
$molecule
0 1
C         4.49137448440000   -0.00829527810000   -0.00278225160000
C         3.28244366240000    0.54830818260000   -0.00193119500000
C         2.03663632240000   -0.17134772850000    0.00072168910000
C         1.79855582830000   -1.52533361230000    0.00377276870000
C         0.43838140710000   -1.84862429800000    0.00438380020000
C        -0.38537752360000   -0.74664446140000    0.00181575960000
C        -1.81827774120000   -0.77012765070000    0.00075372530000
C        -2.62272983120000    0.28741614320000   -0.00043962620000
F        -2.25285138880000    1.56238386860000   -0.00033409930000
F        -3.95053087860000    0.20584715090000   -0.00197116400000
S         0.54469017390000    0.71829083110000   -0.00107005480000
H         5.38269720290000    0.59347361400000   -0.00507999010000
H         4.63223237670000   -1.07505173240000   -0.00111890090000
H         3.18619245240000    1.62620074530000   -0.00390485290000
H         2.58078540440000   -2.26200913040000    0.00547318310000
H         0.06187753820000   -2.85618631380000    0.00651688670000
H        -2.29079329150000   -1.74088166340000    0.00059109090000
$end

$rem
BASIS = 6-31G*
GUI = 2
METHOD = B3LYP
PRINT_ORBITALS false
MOLDEN_FORMAT false
--------------------------------------------------------------

             Standard Nuclear Orientation (Angstroms)
    I     Atom           X                Y                Z
 ----------------------------------------------------------------
    1      C       4.3628652666     0.3932897151    -0.0020366941
    2      C       3.1123352746     0.8488046835    -0.0003868488
    3      C       1.9297872286     0.0293375630     0.0007767459
    4      C       1.8036223147    -1.3396224325     0.0013680629
    5      C       0.4745659099    -1.7734435183     0.0011799630
    6      C      -0.4368466878    -0.7427779699     0.0004485029
    7      C      -1.8629867733    -0.8837683628    -0.0008883930
    8      C      -2.7515111008     0.1041930046    -0.0003214847
    9      F      -2.4875083316     1.4052115793     0.0021239268
   10      F      -4.0681397811    -0.0860615660    -0.0022146661
   11      S       0.3698665547     0.7935434132     0.0003333005
   12      H       5.2017985242     1.0661768507    -0.0031135481
   13      H       4.5907896374    -0.6583107212    -0.0022579236
   14      H       2.9279532713     1.9151647730    -0.0004487640
   15      H       2.6436675510    -2.0096228509     0.0018783504
   16      H       0.1820158203    -2.8085064638     0.0014502333
   17      H      -2.2542452608    -1.8900224158    -0.0028636271
 ----------------------------------------------------------------

    9    -906.2725347315      9.86e-06  Convergence criterion met
 Total energy in the final basis set =     -906.2725347315

                    Orbital Energies (a.u.)
 --------------------------------------------------------------

 Alpha MOs
 -- Occupied --
-88.9082 -24.7476 -24.7387 -10.3594 -10.2289 -10.2189 -10.2130 -10.1997
-10.1941 -10.1907 -10.1833  -7.9699  -5.9338  -5.9302  -5.9268  -1.2884
 -1.2289  -0.8942  -0.8189  -0.7829  -0.7419  -0.7112  -0.6441  -0.6148
 -0.5861  -0.5662  -0.5300  -0.5222  -0.5216  -0.4950  -0.4527  -0.4456
 -0.4445  -0.4309  -0.4199  -0.4013  -0.3972  -0.3767  -0.3630  -0.3438
 -0.3242  -0.2714  -0.2573  -0.1978

          Ground-State Mulliken Net Atomic Charges

     Atom                 Charge (a.u.)
  ----------------------------------------
      1 C                    -0.342299
      2 C                    -0.087662
      3 C                    -0.134471
      4 C                    -0.121929
      5 C                    -0.136311
      6 C                    -0.133859
      7 C                    -0.236759
      8 C                     0.536331
      9 F                    -0.228951
     10 F                    -0.245612
     11 S                     0.255941
     12 H                     0.147417
     13 H                     0.142103
     14 H                     0.138227
     15 H                     0.139305
     16 H                     0.138042
     17 H                     0.170489
  ----------------------------------------
  Sum of atomic charges =     0.000000

                    Cartesian Multipole Moments
 -----------------------------------------------------------------
    Charge (ESU x 10^10)
                 0.0000
    Dipole Moment (Debye)
         X       0.7538      Y      -1.3228      Z      -0.0015
       Tot       1.5225
    Quadrupole Moments (Debye-Ang)
        XX     -65.5469     XY       1.9502     YY     -62.7587
        XZ      -0.0020     YZ      -0.0008     ZZ     -71.6785

 Total job time:  19.13s(wall), 18.90s(cpu)
        *  Thank you very much for using Q-Chem.  Have a nice day.  *
