 Q-Chem 5.2, Q-Chem, Inc., Pleasanton, CA (2019)
 Q-Chem 5.2.1 for Intel X86 EM64T Linux

User input:
--------------------------------------------------------------
$molecule
0 1
C         3.71935328730000   -0.69566626560000   -0.03159418570000
C         2.84308058800000    0.30108191590000    0.01950319520000
C         1.39436144300000    0.17740989620000    0.01260843570000
C         0.70809253360000   -1.04040373270000    0.02402895390000
C        -0.67040799460000   -1.04906809250000    0.01451601280000
C        -1.36391462290000    0.16571484970000   -0.00614842100000
C        -2.81626279300000    0.27884645610000   -0.01747913330000
C        -3.68820884770000   -0.72201563650000    0.00954843870000
N        -0.71147860110000    1.33080410350000   -0.01641869460000
C         0.60154514160000    1.33075043370000   -0.00600128490000
H         4.77944598570000   -0.50933734130000   -0.02406237260000
H         3.42415071460000   -1.72971138460000   -0.08572825420000
H         3.20470053120000    1.32133081620000    0.06573605710000
H         1.25092202560000   -1.97386617440000    0.04387191590000
H        -1.20594914280000   -1.98520002710000    0.02333623930000
H        -3.16212867300000    1.30318067800000   -0.04929934520000
H        -3.39076879420000   -1.75654838070000    0.04420675310000
H        -4.74893434230000   -0.53871794630000   -0.00123526820000
H         1.06475226300000    2.31079368610000   -0.01486244520000
$end

$rem
BASIS = 6-31G*
GUI = 2
METHOD = B3LYP
PRINT_ORBITALS false
MOLDEN_FORMAT false
--------------------------------------------------------------

             Standard Nuclear Orientation (Angstroms)
    I     Atom           X                Y                Z
 ----------------------------------------------------------------
    1      C       3.7072781341    -0.6893660712    -0.0337602853
    2      C       2.8361144022     0.3115534736     0.0228572035
    3      C       1.3867824557     0.1953789679     0.0144989538
    4      C       0.6942557545    -1.0189347616     0.0182954534
    5      C      -0.6842658583    -1.0204507537     0.0080417494
    6      C      -1.3715069418     0.1979854329    -0.0057063898
    7      C      -2.8232480806     0.3186523688    -0.0170865889
    8      C      -3.7003423603    -0.6778546787     0.0035209122
    9      N      -0.7130843478     1.3597435950    -0.0086847934
   10      C       0.5999160538     1.3528732477     0.0023885090
   11      H       4.7683106117    -0.5085412527    -0.0245846776
   12      H       3.4067921049    -1.7215369716    -0.0942230267
   13      H       3.2029501799     1.3296341382     0.0753696025
   14      H       1.2322684459    -1.9552791744     0.0328286931
   15      H      -1.2246172788    -1.9538513768     0.0109973980
   16      H      -3.1638262544     1.3449240958    -0.0429551181
   17      H      -3.4082433039    -1.7140924602     0.0321423117
   18      H      -4.7601056140    -0.4890416854    -0.0066970230
   19      H       1.0681601877     2.3305561672    -0.0003817084
 ----------------------------------------------------------------

    9    -403.0852722335      2.62e-06  Convergence criterion met
 Total energy in the final basis set =     -403.0852722335

                    Orbital Energies (a.u.)
 --------------------------------------------------------------

 Alpha MOs
 -- Occupied --
-14.3233 -10.2260 -10.2180 -10.2056 -10.2030 -10.1977 -10.1975 -10.1882
-10.1871 -10.1851  -0.9494  -0.8281  -0.8017  -0.7706  -0.7299  -0.6539
 -0.6352  -0.5802  -0.5666  -0.5160  -0.4985  -0.4744  -0.4507  -0.4334
 -0.4249  -0.4100  -0.4050  -0.3905  -0.3574  -0.3545  -0.3327  -0.2884
 -0.2730  -0.2515  -0.2203

          Ground-State Mulliken Net Atomic Charges

     Atom                 Charge (a.u.)
  ----------------------------------------
      1 C                    -0.351144
      2 C                    -0.114364
      3 C                     0.149139
      4 C                    -0.150128
      5 C                    -0.169933
      6 C                     0.296672
      7 C                    -0.087285
      8 C                    -0.347581
      9 N                    -0.484573
     10 C                    -0.017380
     11 H                     0.149116
     12 H                     0.143338
     13 H                     0.133768
     14 H                     0.138515
     15 H                     0.134806
     16 H                     0.146461
     17 H                     0.142447
     18 H                     0.150068
     19 H                     0.138058
  ----------------------------------------
  Sum of atomic charges =     0.000000

                    Cartesian Multipole Moments
 -----------------------------------------------------------------
    Charge (ESU x 10^10)
                 0.0000
    Dipole Moment (Debye)
         X       0.8214      Y      -1.7056      Z       0.0187
       Tot       1.8932
    Quadrupole Moments (Debye-Ang)
        XX     -51.2295     XY       2.6894     YY     -55.4261
        XZ       0.0299     YZ       0.0752     ZZ     -62.2903

 Total job time:  17.73s(wall), 17.64s(cpu)
        *  Thank you very much for using Q-Chem.  Have a nice day.  *
