 Q-Chem 5.2, Q-Chem, Inc., Pleasanton, CA (2019)
 Q-Chem 5.2.1 for Intel X86 EM64T Linux

User input:
--------------------------------------------------------------
$molecule
0 1
C         4.24619940450000    0.80643288010000   -0.05529674050000
C         3.34981275570000   -0.16542688210000   -0.18559092520000
C         1.90121323510000   -0.06303230100000   -0.08184091200000
C         1.13455076790000   -1.22205464690000   -0.20988141560000
C        -0.25193751610000   -1.25425473690000   -0.12161069210000
C        -0.91291358780000   -2.55031443520000   -0.25177358040000
C        -2.01116987630000   -2.93452274150000    0.38337433770000
C        -0.93410690300000   -0.03941460750000    0.06539226050000
S        -2.69815825380000    0.00333405470000    0.07672685190000
C        -3.07005601940000    1.71584794990000   -0.41216686440000
C        -0.19964446780000    1.13050059670000    0.20425679250000
C         1.17771987850000    1.11093865860000    0.13688813500000
F         1.80023159000000    2.30110744910000    0.28465248500000
H         5.29821234080000    0.59789061170000   -0.15418531900000
H         3.98576348190000    1.82816823340000    0.15181435720000
H         3.69650241440000   -1.17154183080000   -0.39054254360000
H         1.65159957600000   -2.15686763360000   -0.37575265430000
H        -0.40270481780000   -3.24847587390000   -0.90444003840000
H        -2.52340786650000   -2.30173016940000    1.08662486230000
H        -2.42565615870000   -3.91722987420000    0.23613859600000
H        -4.11911222510000    1.71247825490000   -0.69191911080000
H        -2.45922054940000    1.99562228530000   -1.26476558190000
H        -2.92015566110000    2.39528754090000    0.42188410340000
H        -0.67804498450000    2.08113398140000    0.37408206700000
$end

$rem
BASIS = 6-31G*
GUI = 2
METHOD = B3LYP
PRINT_ORBITALS false
MOLDEN_FORMAT false
--------------------------------------------------------------

             Standard Nuclear Orientation (Angstroms)
    I     Atom           X                Y                Z
 ----------------------------------------------------------------
    1      C       4.3373228536     0.1094203093     0.0336183825
    2      C       3.2529321897     0.8669177723     0.1572770970
    3      C       1.8601532456     0.4535635519     0.0624383498
    4      C       0.8621041213     1.4217314335     0.1809601037
    5      C      -0.4989833468     1.1533759712     0.0996915486
    6      C      -1.4233515626     2.2781467783     0.2181673671
    7      C      -2.5802863159     2.4087126913    -0.4155914946
    8      C      -0.9038567288    -0.1821528520    -0.0694297796
    9      S      -2.6172819221    -0.6040593413    -0.0708825292
   10      C      -2.6101344399    -2.3501853950     0.4400201752
   11      C       0.0650671511    -1.1680299526    -0.1984757777
   12      C       1.4060358742    -0.8513607398    -0.1386657353
   13      F       2.2699796378    -1.8812433741    -0.2757781592
   14      H       5.3199475936     0.5409250488     0.1244607021
   15      H       4.3026117344    -0.9469543587    -0.1601152171
   16      H       3.3752306226     1.9265941644     0.3485758494
   17      H       1.1660188003     2.4479935104     0.3331115912
   18      H      -1.0738254569     3.0779888402     0.8598838669
   19      H      -2.9460142291     1.6716252832    -1.1086432563
   20      H      -3.1963906706     3.2808290736    -0.2776821379
   21      H      -3.6345238143    -2.5693665459     0.7252878207
   22      H      -1.9510918740    -2.4810430068     1.2925795016
   23      H      -2.3195780462    -2.9918259648    -0.3867951931
   24      H      -0.1977088957    -2.2014636271    -0.3546010475
 ----------------------------------------------------------------

    9    -923.7729611371      3.31e-06  Convergence criterion met
 Total energy in the final basis set =     -923.7729611371

                    Orbital Energies (a.u.)
 --------------------------------------------------------------

 Alpha MOs
 -- Occupied --
-88.8856 -24.7108 -10.2743 -10.2292 -10.2172 -10.2026 -10.2018 -10.1972
-10.1969 -10.1927 -10.1913 -10.1800 -10.1766  -7.9467  -5.9119  -5.9076
 -5.9018  -1.2218  -0.8835  -0.8220  -0.7972  -0.7776  -0.7389  -0.7255
 -0.6701  -0.6302  -0.6054  -0.5932  -0.5578  -0.5236  -0.4972  -0.4935
 -0.4647  -0.4581  -0.4509  -0.4446  -0.4367  -0.4302  -0.4129  -0.4091
 -0.3891  -0.3822  -0.3709  -0.3595  -0.3396  -0.3220  -0.3169  -0.2850
 -0.2567  -0.2332  -0.2052

          Ground-State Mulliken Net Atomic Charges

     Atom                 Charge (a.u.)
  ----------------------------------------
      1 C                    -0.360850
      2 C                    -0.107785
      3 C                     0.122190
      4 C                    -0.273347
      5 C                     0.143061
      6 C                    -0.124126
      7 C                    -0.345856
      8 C                    -0.124731
      9 S                     0.145727
     10 C                    -0.612751
     11 C                    -0.235896
     12 C                     0.328283
     13 F                    -0.291069
     14 H                     0.139448
     15 H                     0.159735
     16 H                     0.128836
     17 H                     0.136494
     18 H                     0.134465
     19 H                     0.171473
     20 H                     0.144789
     21 H                     0.193426
     22 H                     0.193776
     23 H                     0.189188
     24 H                     0.145519
  ----------------------------------------
  Sum of atomic charges =     0.000000

                    Cartesian Multipole Moments
 -----------------------------------------------------------------
    Charge (ESU x 10^10)
                 0.0000
    Dipole Moment (Debye)
         X      -0.5533      Y      -0.2564      Z       0.5579
       Tot       0.8265
    Quadrupole Moments (Debye-Ang)
        XX     -80.6663     XY       5.6802     YY     -73.6490
        XZ       0.1667     YZ       0.5088     ZZ     -85.7093

 Total job time:  35.52s(wall), 35.41s(cpu)
        *  Thank you very much for using Q-Chem.  Have a nice day.  *
