 Q-Chem 5.2, Q-Chem, Inc., Pleasanton, CA (2019)
 Q-Chem 5.2.1 for Intel X86 EM64T Linux

User input:
--------------------------------------------------------------
$molecule
0 1
C        -3.88144306200000   -0.59751336230000    0.15580304620000
C        -2.82038003730000    0.10212911030000   -0.22497403050000
C        -1.44301396660000   -0.34984376910000   -0.12066639560000
C        -1.05498420810000   -1.66383503370000   -0.05713672240000
S         0.63677255240000   -1.87985355130000   -0.01404425180000
C         0.87783186220000   -0.16711265830000   -0.07110012560000
C         2.26881237430000    0.29773899930000   -0.00673836440000
O         3.20250346220000   -0.43736340040000   -0.18925982270000
O         2.45757349510000    1.59865670890000    0.28968807570000
C        -0.31429208460000    0.52644331380000   -0.13536541390000
C        -0.41805157640000    1.98220953590000   -0.23714133770000
C        -1.22664538790000    2.72175992090000    0.51061885070000
H        -4.87881807440000   -0.21071388490000    0.04019810340000
H        -3.79528366580000   -1.57205269710000    0.60503245480000
H        -2.94781887570000    1.09106207760000   -0.64569664020000
H        -1.69479513970000   -2.52377020800000   -0.05745733180000
H         1.62676371810000    2.06474017810000    0.46601592390000
H         0.19755652460000    2.44913224440000   -0.99922601440000
H        -1.84364652020000    2.28659094500000    1.27919323240000
H        -1.28707180660000    3.78977499060000    0.38935523930000
$end

$rem
BASIS = 6-31G*
GUI = 2
METHOD = B3LYP
PRINT_ORBITALS false
MOLDEN_FORMAT false
--------------------------------------------------------------

             Standard Nuclear Orientation (Angstroms)
    I     Atom           X                Y                Z
 ----------------------------------------------------------------
    1      C       3.8266197449    -0.4886378678    -0.1449550122
    2      C       2.7371949117     0.1490032424     0.2635946925
    3      C       1.3783940171    -0.3459497007     0.1187548769
    4      C       1.0396455663    -1.6673485341    -0.0238311196
    5      S      -0.6425549499    -1.9418215687    -0.0975052291
    6      C      -0.9470892807    -0.2450644363     0.0545487253
    7      C      -2.3536476624     0.1719022631     0.0017417597
    8      O      -3.2611597537    -0.6058821186     0.1319029220
    9      O      -2.5876481012     1.4799780399    -0.2220166792
   10      C       0.2180451862     0.4864862118     0.1711880898
   11      C       0.2671659740     1.9368152629     0.3569633738
   12      C       1.0544463725     2.7469428325    -0.3385845529
   13      H       4.8080067180    -0.0731536880     0.0033276881
   14      H       3.7803798351    -1.4382667114    -0.6499543669
   15      H       2.8244030459     1.1161277617     0.7414037455
   16      H       1.7107004010    -2.5020847145    -0.0656348629
   17      H      -1.7730787155     1.9852736691    -0.3624561284
   18      H      -0.3718756916     2.3365593257     1.1377281515
   19      H       1.6937660096     2.3793022896    -1.1240015427
   20      H       1.0743914571     3.8077241542    -0.1559439611
 ----------------------------------------------------------------

    9    -896.3596474622      9.85e-06  Convergence criterion met
 Total energy in the final basis set =     -896.3596474622

                    Orbital Energies (a.u.)
 --------------------------------------------------------------

 Alpha MOs
 -- Occupied --
-88.9268 -19.1923 -19.1295 -10.3225 -10.2333 -10.2292 -10.2258 -10.2237
-10.2153 -10.2150 -10.2039 -10.1921  -7.9876  -5.9514  -5.9476  -5.9451
 -1.1020  -1.0196  -0.9108  -0.8237  -0.8065  -0.7482  -0.7346  -0.6503
 -0.6276  -0.6091  -0.6049  -0.5425  -0.5269  -0.4903  -0.4772  -0.4544
 -0.4519  -0.4435  -0.4366  -0.4142  -0.3989  -0.3944  -0.3815  -0.3697
 -0.3556  -0.3195  -0.3138  -0.3069  -0.2757  -0.2532  -0.2344

          Ground-State Mulliken Net Atomic Charges

     Atom                 Charge (a.u.)
  ----------------------------------------
      1 C                    -0.348679
      2 C                    -0.110595
      3 C                     0.146066
      4 C                    -0.407910
      5 S                     0.335483
      6 C                    -0.309293
      7 C                     0.607171
      8 O                    -0.452773
      9 O                    -0.587954
     10 C                     0.126542
     11 C                    -0.224408
     12 C                    -0.319865
     13 H                     0.148650
     14 H                     0.143170
     15 H                     0.143895
     16 H                     0.180275
     17 H                     0.416530
     18 H                     0.176890
     19 H                     0.174138
     20 H                     0.162669
  ----------------------------------------
  Sum of atomic charges =     0.000000

                    Cartesian Multipole Moments
 -----------------------------------------------------------------
    Charge (ESU x 10^10)
                 0.0000
    Dipole Moment (Debye)
         X       5.1818      Y       1.8472      Z      -0.2695
       Tot       5.5078
    Quadrupole Moments (Debye-Ang)
        XX     -89.0203     XY      -2.4995     YY     -66.2840
        XZ      -0.6049     YZ       1.2907     ZZ     -76.6016

 Total job time:  27.97s(wall), 27.87s(cpu)
        *  Thank you very much for using Q-Chem.  Have a nice day.  *
