 Q-Chem 5.2, Q-Chem, Inc., Pleasanton, CA (2019)
 Q-Chem 5.2.1 for Intel X86 EM64T Linux

User input:
--------------------------------------------------------------
$molecule
0 1
C        -3.47733850720000    0.52722297210000    0.75764755790000
C        -2.89125778990000   -0.31175158440000   -0.08402245580000
C        -1.45484066250000   -0.55389761660000   -0.16131122400000
C        -0.96842868630000   -1.80853144780000   -0.40310827060000
S         0.73422571270000   -1.90540047160000   -0.33149876910000
C         0.84261977560000   -0.19939555160000    0.01476794030000
C         2.13800695560000    0.46479592280000    0.19565001160000
O         2.25136189650000    1.64927983530000    0.37496431820000
O         3.22851813110000   -0.32501669960000    0.15988333920000
C        -0.40445072730000    0.39154807310000    0.06234351690000
C        -0.57878627800000    1.82586624690000    0.25308963790000
C        -1.38647931780000    2.57158693260000   -0.48738092420000
H        -4.54806315300000    0.63190164710000    0.78755704250000
H        -2.91354551020000    1.13627447190000    1.44285633670000
H        -3.49051893010000   -0.93515192710000   -0.73605925280000
H        -1.53273608520000   -2.70069817880000   -0.59458740050000
H         3.02147973420000   -1.25713276990000    0.01076486440000
H         0.06337531450000    2.27713981340000    0.99607602830000
H        -1.99214168250000    2.15255974450000   -1.27411457680000
H        -1.45894156540000    3.63450025210000   -0.33794495790000
$end

$rem
BASIS = 6-31G*
GUI = 2
METHOD = B3LYP
PRINT_ORBITALS false
MOLDEN_FORMAT false
--------------------------------------------------------------

             Standard Nuclear Orientation (Angstroms)
    I     Atom           X                Y                Z
 ----------------------------------------------------------------
    1      C       3.4508966062    -0.0748269420     0.7311496880
    2      C       2.7423974546     0.7576271813    -0.0177337545
    3      C       1.2855321044     0.7928273395    -0.0825929765
    4      C       0.6179921856     1.9812966790    -0.1879474186
    5      S      -1.0798677096     1.8178719298    -0.1238564018
    6      C      -0.9334369196     0.0865744061     0.0286873691
    7      C      -2.1156142420    -0.7770732315     0.1206988953
    8      O      -2.0519997288    -1.9778860905     0.1654959207
    9      O      -3.3108513958    -0.1573861123     0.1618556402
   10      C       0.3873977616    -0.3159516372     0.0231042053
   11      C       0.7724573413    -1.7212257650     0.0543985559
   12      C       1.6767305843    -2.2523214439    -0.7561514566
   13      H       4.5255159404    -0.0234520655     0.7604307078
   14      H       2.9872555474    -0.8330557260     1.3381450941
   15      H       3.2392054874     1.5314647385    -0.5897924050
   16      H       1.0434167874     2.9625691855    -0.2727221192
   17      H      -3.2444159432     0.8058200506     0.1198817876
   18      H       0.2083966320    -2.3423995698     0.7355936377
   19      H       2.2091786376    -1.6633133361    -1.4848002361
   20      H       1.9060220042    -3.3029660487    -0.7255251701
 ----------------------------------------------------------------

   10    -896.3511984341      3.90e-06  Convergence criterion met
 Total energy in the final basis set =     -896.3511984341

                    Orbital Energies (a.u.)
 --------------------------------------------------------------

 Alpha MOs
 -- Occupied --
-88.9308 -19.1962 -19.1315 -10.3247 -10.2353 -10.2341 -10.2220 -10.2170
-10.2029 -10.1925 -10.1888 -10.1841  -7.9931  -5.9570  -5.9533  -5.9502
 -1.1060  -1.0214  -0.9111  -0.8128  -0.7973  -0.7443  -0.7305  -0.6548
 -0.6166  -0.6068  -0.5943  -0.5412  -0.5201  -0.4767  -0.4660  -0.4538
 -0.4492  -0.4420  -0.4295  -0.4131  -0.3921  -0.3904  -0.3828  -0.3645
 -0.3565  -0.3191  -0.3073  -0.2992  -0.2709  -0.2454  -0.2320

          Ground-State Mulliken Net Atomic Charges

     Atom                 Charge (a.u.)
  ----------------------------------------
      1 C                    -0.320917
      2 C                    -0.134060
      3 C                     0.132016
      4 C                    -0.392676
      5 S                     0.242077
      6 C                    -0.317216
      7 C                     0.625607
      8 O                    -0.454659
      9 O                    -0.583931
     10 C                     0.117891
     11 C                    -0.119884
     12 C                    -0.318461
     13 H                     0.147017
     14 H                     0.158979
     15 H                     0.136795
     16 H                     0.183608
     17 H                     0.423127
     18 H                     0.173277
     19 H                     0.150463
     20 H                     0.150947
  ----------------------------------------
  Sum of atomic charges =     0.000000

                    Cartesian Multipole Moments
 -----------------------------------------------------------------
    Charge (ESU x 10^10)
                 0.0000
    Dipole Moment (Debye)
         X       2.7935      Y       3.5164      Z      -0.1949
       Tot       4.4952
    Quadrupole Moments (Debye-Ang)
        XX     -75.4305     XY      -8.6860     YY     -73.8192
        XZ      -0.5299     YZ      -1.3662     ZZ     -76.5057

 Total job time:  31.75s(wall), 31.08s(cpu)
        *  Thank you very much for using Q-Chem.  Have a nice day.  *
