 Q-Chem 5.2, Q-Chem, Inc., Pleasanton, CA (2019)
 Q-Chem 5.2.1 for Intel X86 EM64T Linux

User input:
--------------------------------------------------------------
$molecule
0 1
C        -3.86056366710000    0.56867546950000   -0.01346630900000
C        -3.04094546560000   -0.47611289450000    0.01599594400000
C        -1.58586078160000   -0.44038090340000    0.00862314570000
C        -0.86994675020000   -1.64010876190000    0.00979790200000
C         0.50687019410000   -1.64818005510000    0.00189484240000
C         1.26126383050000   -0.46945693930000   -0.00459133160000
C         2.71327505600000   -0.57074039150000   -0.01011256490000
C         3.60161032410000    0.41718533380000    0.01737627520000
C         0.52403938970000    0.71865145290000   -0.00552854760000
F         1.14980276050000    1.91751174770000   -0.01466562050000
C        -0.85354231470000    0.74607565460000    0.00044515850000
H        -4.92915821380000    0.44005980070000   -0.00563537660000
H        -3.51002045790000    1.58565103030000   -0.04771750710000
H        -3.46318000190000   -1.47315932700000    0.04667729240000
H        -1.40767752890000   -2.57719263480000    0.01577679900000
H         1.03116533350000   -2.59310375220000    0.00218328520000
H         3.07244289010000   -1.59312910090000   -0.03701418140000
H         3.33102630440000    1.45658656610000    0.04772269700000
H         4.65744505260000    0.20394570620000    0.01085920160000
H        -1.34298071790000    1.70659485600000    0.00007205560000
$end

$rem
BASIS = 6-31G*
GUI = 2
METHOD = B3LYP
PRINT_ORBITALS false
MOLDEN_FORMAT false
--------------------------------------------------------------

             Standard Nuclear Orientation (Angstroms)
    I     Atom           X                Y                Z
 ----------------------------------------------------------------
    1      C       3.8040853938    -0.7813002231    -0.0104041009
    2      C       3.0352562431     0.3015292980     0.0142274080
    3      C       1.5801237594     0.3352373023     0.0067577145
    4      C       0.9222728587     1.5677528759     0.0024254863
    5      C      -0.4525908935     1.6414767587    -0.0057570724
    6      C      -1.2623707278     0.5000763665    -0.0070903160
    7      C      -2.7078951999     0.6705040130    -0.0133223931
    8      C      -3.6423585142    -0.2737744988     0.0184396890
    9      C      -0.5826792361    -0.7218488926    -0.0025688927
   10      F      -1.2649363169    -1.8895130477    -0.0064399613
   11      C       0.7920248674    -0.8149485949     0.0037712590
   12      H       4.8776001563    -0.7037871511    -0.0029611536
   13      H       3.4054130471    -1.7805340078    -0.0401560893
   14      H       3.5045871579     1.2774199524     0.0405116318
   15      H       1.5041062864     2.4781278991     0.0042968379
   16      H      -0.9311997363     2.6103335634    -0.0097990122
   17      H      -3.0178694448     1.7087354283    -0.0448723360
   18      H      -3.4216788368    -1.3247564877     0.0534950395
   19      H      -4.6868155877    -0.0104280888     0.0107797243
   20      H       1.2350725037    -1.7977201090     0.0077923191
 ----------------------------------------------------------------

    9    -486.2804660681      1.75e-06  Convergence criterion met
 Total energy in the final basis set =     -486.2804660681

                    Orbital Energies (a.u.)
 --------------------------------------------------------------

 Alpha MOs
 -- Occupied --
-24.7079 -10.2725 -10.2044 -10.2043 -10.1960 -10.1955 -10.1935 -10.1931
-10.1906 -10.1854 -10.1782  -1.2189  -0.8749  -0.8139  -0.7719  -0.7539
 -0.7229  -0.6418  -0.6263  -0.5813  -0.5704  -0.5276  -0.5016  -0.4842
 -0.4641  -0.4616  -0.4447  -0.4370  -0.4287  -0.4002  -0.3823  -0.3770
 -0.3649  -0.3592  -0.3366  -0.3259  -0.2725  -0.2512  -0.2151

          Ground-State Mulliken Net Atomic Charges

     Atom                 Charge (a.u.)
  ----------------------------------------
      1 C                    -0.348174
      2 C                    -0.117156
      3 C                     0.188308
      4 C                    -0.193910
      5 C                    -0.208544
      6 C                     0.119161
      7 C                    -0.109187
      8 C                    -0.357818
      9 C                     0.325245
     10 F                    -0.293929
     11 C                    -0.268480
     12 H                     0.147886
     13 H                     0.146336
     14 H                     0.130602
     15 H                     0.130586
     16 H                     0.136899
     17 H                     0.128601
     18 H                     0.162320
     19 H                     0.140240
     20 H                     0.141016
  ----------------------------------------
  Sum of atomic charges =     0.000000

                    Cartesian Multipole Moments
 -----------------------------------------------------------------
    Charge (ESU x 10^10)
                 0.0000
    Dipole Moment (Debye)
         X       0.7327      Y       1.0341      Z       0.0058
       Tot       1.2674
    Quadrupole Moments (Debye-Ang)
        XX     -56.9459     XY      -1.8566     YY     -58.4923
        XZ       0.0194     YZ      -0.0361     ZZ     -67.4358

 Total job time:  21.64s(wall), 21.53s(cpu)
        *  Thank you very much for using Q-Chem.  Have a nice day.  *
