 Q-Chem 5.2, Q-Chem, Inc., Pleasanton, CA (2019)
 Q-Chem 5.2.1 for Intel X86 EM64T Linux

User input:
--------------------------------------------------------------
$molecule
0 1
C        -4.35354490820000   -1.35942812850000    0.05571970350000
C        -3.03366611180000   -1.48186249740000   -0.02475743070000
C        -2.05957733930000   -0.39764095880000   -0.01856529180000
C        -2.42481438370000    0.95210141520000   -0.02008190550000
C        -1.46227952550000    1.93698050310000   -0.01306696020000
C        -0.10821665330000    1.60138999370000   -0.00422356700000
C         0.84402533740000    2.64381079370000    0.00268753080000
N         1.60083039240000    3.50598265630000    0.00811462940000
C         0.28995646220000    0.24923641560000   -0.00449929870000
C         1.71278719120000   -0.05084760600000    0.00365305820000
C         2.29984957520000   -1.23944120790000    0.00506457160000
F         1.72412992310000   -2.43505427650000   -0.00124004790000
F         3.61767449230000   -1.39764821660000    0.01327637730000
C        -0.70323711060000   -0.72406884910000   -0.01352904890000
H        -4.99390933410000   -2.22432837520000    0.04592751390000
H        -4.85117073800000   -0.40842368240000    0.13820348990000
H        -2.60172086220000   -2.47223947510000   -0.09593724620000
H        -3.46570220690000    1.23236484970000   -0.03135227130000
H        -1.74431065020000    2.97973142420000   -0.01520800970000
H         2.38514960270000    0.79607022720000    0.00973405250000
H        -0.42879476180000   -1.76667654180000   -0.01445804150000
$end

$rem
BASIS = 6-31G*
GUI = 2
METHOD = B3LYP
PRINT_ORBITALS false
MOLDEN_FORMAT false
--------------------------------------------------------------

             Standard Nuclear Orientation (Angstroms)
    I     Atom           X                Y                Z
 ----------------------------------------------------------------
    1      C       4.2679277030     1.3037280537     0.0526521493
    2      C       2.9500652275     1.4463947953    -0.0275443439
    3      C       1.9593866137     0.3773207359    -0.0197878130
    4      C       2.3037804836    -0.9778905878    -0.0198614829
    5      C       1.3261855376    -1.9478111599    -0.0114006390
    6      C      -0.0225421072    -1.5913841822    -0.0025120570
    7      C      -0.9907321504    -2.6189983301     0.0059081421
    8      N      -1.7607313737    -3.4693984910     0.0125735547
    9      C      -0.3998315844    -0.2332564533    -0.0042229854
   10      C      -1.8178662983     0.0887272070     0.0040375818
   11      C      -2.3865424635     1.2862272503     0.0042633065
   12      F      -1.7924691614     2.4728183531    -0.0036070379
   13      F      -3.7017701175     1.4647327476     0.0127136944
   14      C       0.6082394035     0.7246169029    -0.0146950621
   15      H       4.9215407003     2.1586456230     0.0416557309
   16      H       4.7508674610     0.3452635538     0.1360757103
   17      H       2.5334087860     2.4432279807    -0.0997304433
   18      H       3.3402220437    -1.2741738025    -0.0311408247
   19      H       1.5921138416    -2.9947861868    -0.0124268906
   20      H      -2.5031976271    -0.7477212707     0.0113122596
   21      H       0.3498957305     1.7713282419    -0.0167411117
 ----------------------------------------------------------------

    9    -677.7586104088      7.94e-06  Convergence criterion met
 Total energy in the final basis set =     -677.7586104088

                    Orbital Energies (a.u.)
 --------------------------------------------------------------

 Alpha MOs
 -- Occupied --
-24.7594 -24.7482 -14.3341 -10.3742 -10.2369 -10.2358 -10.2260 -10.2217
-10.2186 -10.2162 -10.2093 -10.2091 -10.2081 -10.1996  -1.3010  -1.2394
 -0.9188  -0.8924  -0.8350  -0.8121  -0.7645  -0.7590  -0.6747  -0.6582
 -0.6350  -0.5945  -0.5846  -0.5650  -0.5338  -0.5310  -0.5120  -0.4844
 -0.4579  -0.4562  -0.4547  -0.4501  -0.4369  -0.4254  -0.4197  -0.4011
 -0.3816  -0.3661  -0.3647  -0.3584  -0.3355  -0.3298  -0.3016  -0.2522
 -0.2371

          Ground-State Mulliken Net Atomic Charges

     Atom                 Charge (a.u.)
  ----------------------------------------
      1 C                    -0.346918
      2 C                    -0.114265
      3 C                     0.203387
      4 C                    -0.190194
      5 C                    -0.142742
      6 C                     0.094920
      7 C                     0.208514
      8 N                    -0.484055
      9 C                     0.217420
     10 C                    -0.314780
     11 C                     0.558943
     12 F                    -0.229968
     13 F                    -0.236869
     14 C                    -0.309080
     15 H                     0.155228
     16 H                     0.150486
     17 H                     0.137573
     18 H                     0.139686
     19 H                     0.161012
     20 H                     0.191974
     21 H                     0.149728
  ----------------------------------------
  Sum of atomic charges =     0.000000

                    Cartesian Multipole Moments
 -----------------------------------------------------------------
    Charge (ESU x 10^10)
                 0.0000
    Dipole Moment (Debye)
         X       3.4768      Y       2.7280      Z      -0.0190
       Tot       4.4193
    Quadrupole Moments (Debye-Ang)
        XX     -73.7764     XY      -7.6972     YY     -86.4269
        XZ       0.1562     YZ      -0.0670     ZZ     -79.9491

 Total job time:  30.38s(wall), 30.28s(cpu)
        *  Thank you very much for using Q-Chem.  Have a nice day.  *
