 Q-Chem 5.2, Q-Chem, Inc., Pleasanton, CA (2019)
 Q-Chem 5.2.1 for Intel X86 EM64T Linux

User input:
--------------------------------------------------------------
$molecule
0 1
F        -5.17334339180000    0.02384792480000   -0.03107765800000
C        -3.87425348860000    0.30418628550000    0.03701966200000
F        -3.72593891810000    1.59588475500000    0.30256865700000
C        -2.92759888000000   -0.60623519690000   -0.14177236520000
C        -1.48679728870000   -0.43082435560000   -0.09499740460000
C        -0.85981554650000    0.78951309000000    0.16353374660000
C         0.51504542530000    0.88840037550000    0.19243942260000
C         1.32148644770000   -0.22751215900000   -0.03584526820000
N         2.71403413310000   -0.12255172190000   -0.00741850520000
C         3.46151720060000    0.99919387810000    0.22833015640000
N         4.73664540540000    0.76606938890000    0.18456964800000
C         4.86109317320000   -0.56168408100000   -0.09080623660000
C         3.63086563250000   -1.12875453470000   -0.21312495110000
C         0.69907193040000   -1.44936546400000   -0.29346526190000
C        -0.67545464420000   -1.54437562680000   -0.32141057330000
H        -3.28521789100000   -1.60445628540000   -0.34948341860000
H        -1.44448713710000    1.67588340240000    0.34509840960000
H         0.95883826820000    1.84891814210000    0.39558522470000
H         3.04628536320000    1.96500600250000    0.42742483630000
H         5.82567487300000   -1.01845699620000   -0.18224949000000
H         3.35818287960000   -2.14021610810000   -0.42418680820000
H         1.28421175080000   -2.33601132180000   -0.47441038710000
H        -1.13206272530000   -2.50194052110000   -0.52331020250000
$end

$rem
BASIS = 6-31G*
GUI = 2
METHOD = B3LYP
PRINT_ORBITALS false
MOLDEN_FORMAT false
--------------------------------------------------------------

             Standard Nuclear Orientation (Angstroms)
    I     Atom           X                Y                Z
 ----------------------------------------------------------------
    1      F       5.2509799197    -0.2150683414     0.0039957939
    2      C       3.9676592575     0.1369901038     0.0019107466
    3      F       3.8845931019     1.4614120224     0.0041494696
    4      C       2.9763491550    -0.7429425524    -0.0014971475
    5      C       1.5462075864    -0.4908340696    -0.0030758931
    6      C       0.9815023481     0.7859862142    -0.0055046638
    7      C      -0.3866433974     0.9563802956    -0.0054691758
    8      C      -1.2482935549    -0.1414693816    -0.0028424522
    9      N      -2.6338052448     0.0356401879    -0.0010018157
   10      C      -3.3238393091     1.2173652456    -0.0003408287
   11      N      -4.6091174576     1.0434042519     0.0030653185
   12      C      -4.8003024556    -0.3048144489     0.0048067801
   13      C      -3.6001830708    -0.9448911338     0.0023841922
   14      C      -0.6882212932    -1.4193625195    -0.0015850452
   15      C       0.6797864282    -1.5857536676    -0.0017744040
   16      H       3.2832338971    -1.7789453321    -0.0022559798
   17      H       1.6100966422     1.6608143210    -0.0074854143
   18      H      -0.7814817212     1.9588342126    -0.0073471174
   19      H      -2.8604688596     2.1817992115    -0.0023858266
   20      H      -5.7866904070    -0.7224880746     0.0077685412
   21      H      -3.3787991031    -1.9903319578     0.0027421229
   22      H      -1.3172943754    -2.2943116248    -0.0002639255
   23      H       1.0875754843    -2.5856994792    -0.0005969422
 ----------------------------------------------------------------

    9    -733.1315813590      5.75e-06  Convergence criterion met
 Total energy in the final basis set =     -733.1315813590

                    Orbital Energies (a.u.)
 --------------------------------------------------------------

 Alpha MOs
 -- Occupied --
-24.7520 -24.7411 -14.4065 -14.3102 -10.3642 -10.2511 -10.2365 -10.2159
-10.2128 -10.2110 -10.2063 -10.2059 -10.2054 -10.2029 -10.1964  -1.2931
 -1.2320  -1.0335  -0.9127  -0.8706  -0.8134  -0.7737  -0.7566  -0.7400
 -0.6665  -0.6422  -0.6315  -0.5918  -0.5866  -0.5771  -0.5704  -0.5382
 -0.5264  -0.4927  -0.4741  -0.4686  -0.4577  -0.4520  -0.4480  -0.4400
 -0.4356  -0.4294  -0.4181  -0.4108  -0.3911  -0.3857  -0.3589  -0.3323
 -0.2813  -0.2720  -0.2664  -0.2356  -0.2170

          Ground-State Mulliken Net Atomic Charges

     Atom                 Charge (a.u.)
  ----------------------------------------
      1 F                    -0.245726
      2 C                     0.546279
      3 F                    -0.233563
      4 C                    -0.300568
      5 C                     0.205627
      6 C                    -0.206921
      7 C                    -0.165914
      8 C                     0.356359
      9 N                    -0.527480
     10 C                     0.203155
     11 N                    -0.431158
     12 C                    -0.038480
     13 C                     0.013465
     14 C                    -0.163471
     15 C                    -0.208227
     16 H                     0.161786
     17 H                     0.147470
     18 H                     0.146366
     19 H                     0.162102
     20 H                     0.139731
     21 H                     0.160552
     22 H                     0.142056
     23 H                     0.136563
  ----------------------------------------
  Sum of atomic charges =     0.000000

                    Cartesian Multipole Moments
 -----------------------------------------------------------------
    Charge (ESU x 10^10)
                 0.0000
    Dipole Moment (Debye)
         X       2.1561      Y      -2.1100      Z      -0.0058
       Tot       3.0167
    Quadrupole Moments (Debye-Ang)
        XX    -101.2629     XY       7.0665     YY     -75.6839
        XZ      -0.0035     YZ      -0.0270     ZZ     -86.7151

 Total job time:  35.66s(wall), 34.77s(cpu)
        *  Thank you very much for using Q-Chem.  Have a nice day.  *
