 Q-Chem 5.2, Q-Chem, Inc., Pleasanton, CA (2019)
 Q-Chem 5.2.1 for Intel X86 EM64T Linux

User input:
--------------------------------------------------------------
$molecule
0 1
C         4.71211735160000   -0.47418969900000    1.77702046260000
C         3.53326398770000    0.12213032050000    1.90882217250000
C         2.45245182980000    0.09098971200000    0.94569382980000
C         1.12332509130000    0.20846231990000    1.26192201240000
N         0.35418004650000    0.08352709810000    0.13977574880000
Si       -1.41346329690000    0.12685954080000   -0.01602178500000
C        -2.10964175570000    0.34257606480000    1.76422772020000
C        -3.57590488890000    0.77124515150000    1.77436229000000
C        -1.96077430600000   -0.92373609360000    2.60907502100000
C        -1.70977070780000    1.63429609510000   -1.17853393590000
C        -3.16853732040000    1.89283075020000   -1.55253090280000
C        -1.09442458440000    2.90633932440000   -0.59313585010000
C        -1.95461853180000   -1.55010848730000   -0.80583057090000
C        -1.97292383700000   -1.52499928620000   -2.33511039020000
C        -1.05954085860000   -2.70390422240000   -0.34754216020000
C         1.21051601060000   -0.10157090830000   -0.90999116340000
C         2.51058476370000   -0.10424660460000   -0.47558525240000
C         3.69845636850000   -0.18481796370000   -1.29918343510000
C         3.75119427500000   -0.74287632620000   -2.50264609460000
H         5.46312380630000   -0.41099152310000    2.54662160930000
H         4.96337518570000   -1.06132095400000    0.91072374200000
H         3.30624636050000    0.65936322190000    2.82293892390000
H         0.67703648470000    0.36212680930000    2.22328076230000
H        -1.53878788700000    1.13753993920000    2.25513967640000
H        -4.18915054990000    0.07611812720000    1.20594643860000
H        -3.69650275750000    1.76313755580000    1.35015113750000
H        -3.95314386130000    0.79704847480000    2.79595420470000
H        -2.59750948890000   -1.71487819100000    2.22050582440000
H        -2.26144464240000   -0.72756063320000    3.63783836850000
H        -0.93398035440000   -1.27967706500000    2.61854280850000
H        -1.17352652680000    1.41818517510000   -2.10918756610000
H        -3.72296090360000    2.28345914010000   -0.70457524790000
H        -3.66359674700000    0.98535574350000   -1.88698650660000
H        -3.22669649240000    2.62801351700000   -2.35405270030000
H        -1.59050297780000    3.18303236440000    0.33442380930000
H        -1.19781479560000    3.73480640220000   -1.29217973300000
H        -0.03659619760000    2.76453104190000   -0.38662220910000
H        -2.97538394080000   -1.77001745300000   -0.47418481560000
H        -0.97396773720000   -1.35478122720000   -2.72803499320000
H        -2.62764940740000   -0.74762928240000   -2.71737707620000
H        -2.32277211010000   -2.48183511640000   -2.72056758470000
H        -0.03347155930000   -2.53800106790000   -0.66741879180000
H        -1.40345616070000   -3.64195052070000   -0.78116807440000
H        -1.06268243560000   -2.80825916600000    0.73283448970000
H         0.83523973190000   -0.17755140510000   -1.91027839760000
H         4.58629222790000    0.26741807760000   -0.87622045190000
H         2.89309807810000   -1.21886522820000   -2.94680730170000
H         4.65721702650000   -0.75201471460000   -3.08423245250000
$end

$rem
BASIS = 6-31G*
GUI = 2
METHOD = B3LYP
PRINT_ORBITALS false
MOLDEN_FORMAT false
--------------------------------------------------------------

             Standard Nuclear Orientation (Angstroms)
    I     Atom           X                Y                Z
 ----------------------------------------------------------------
    1      C       4.8088380138     1.7408295498     0.0321151557
    2      C       3.5698369510     1.9147972175    -0.4120426167
    3      C       2.4911182797     0.9531644388    -0.3205587937
    4      C       1.1603450307     1.2783891045    -0.2601481953
    5      N       0.4006070768     0.1512749989    -0.1229724648
    6      Si     -1.3614247183     0.0010444645     0.0299598763
    7      C      -2.0614452257     1.7927849842     0.0188438789
    8      C      -3.5674937332     1.8342080108    -0.2339198389
    9      C      -1.7582991580     2.5483845049     1.3136978428
   10      C      -1.8420264938    -1.0547051857    -1.5082248192
   11      C      -3.3243804247    -1.4082109079    -1.6194653569
   12      C      -1.3735934150    -0.3840100459    -2.8005770265
   13      C      -1.7109172710    -0.9015099549     1.7009234156
   14      C      -1.7462050772    -2.4254207039     1.5739859449
   15      C      -0.6833579125    -0.5247554153     2.7707900841
   16      C       1.2628981341    -0.9098079533    -0.1111307497
   17      C       2.5584062834    -0.4782463037    -0.2307451103
   18      C       3.7398885983    -1.3069256778    -0.3457872522
   19      C       3.8460893526    -2.5459734374     0.1189867197
   20      H       5.5544810368     2.5120112510    -0.0657924300
   21      H       5.1187121865     0.8359016331     0.5254781871
   22      H       3.2902912055     2.8639709468    -0.8555389936
   23      H       0.7081342978     2.2485972856    -0.2947672684
   24      H      -1.5825202376     2.3364734653    -0.8020519372
   25      H      -4.1008651055     1.2201162590     0.4877273743
   26      H      -3.8067062544     1.4793466755    -1.2315170983
   27      H      -3.9356795122     2.8556294261    -0.1458141155
   28      H      -2.3021502178     2.1071419984     2.1454758223
   29      H      -2.0702138658     3.5885776354     1.2245409367
   30      H      -0.6969982751     2.5320693175     1.5470723996
   31      H      -1.2929194181    -1.9986871534    -1.4201487453
   32      H      -3.9126320019    -0.5347099703    -1.8839668412
   33      H      -3.7134768849    -1.8036438522    -0.6852854996
   34      H      -3.4751874244    -2.1572174133    -2.3957126663
   35      H      -1.8898931912     0.5609999770    -2.9535813733
   36      H      -1.5792342558    -1.0243109614    -3.6569859051
   37      H      -0.3045787559    -0.1890627522    -2.7695676712
   38      H      -2.6960093889    -0.5844868843     2.0606466042
   39      H      -0.7775547935    -2.8069665328     1.2618695741
   40      H      -2.4905181021    -2.7525151127     0.8541909163
   41      H      -1.9858095743    -2.8753104547     2.5366358118
   42      H       0.3133999142    -0.8337568708     2.4647589442
   43      H      -0.9197048593    -1.0214155061     3.7108480085
   44      H      -0.6643054987     0.5458933554     2.9481646731
   45      H       0.8897616748    -1.9124801979    -0.0601658115
   46      H       4.5729057135    -0.8549863966    -0.8687604899
   47      H       3.0451776894    -3.0207311511     0.6605763400
   48      H       4.7415788220    -3.1279488610    -0.0174194551
 ----------------------------------------------------------------

    8   -1009.5142934043      9.75e-06  Convergence criterion met
 Total energy in the final basis set =    -1009.5142934043

                    Orbital Energies (a.u.)
 --------------------------------------------------------------

 Alpha MOs
 -- Occupied --
-66.1427 -14.3542 -10.1946 -10.1939 -10.1851 -10.1820 -10.1811 -10.1795
-10.1793 -10.1777 -10.1777 -10.1774 -10.1751 -10.1731 -10.1704 -10.1671
-10.1665 -10.1620 -10.1617  -5.2855  -3.6463  -3.6435  -3.6432  -0.9650
 -0.8066  -0.7947  -0.7849  -0.7816  -0.7687  -0.7201  -0.7051  -0.6919
 -0.6859  -0.6829  -0.6145  -0.6066  -0.5827  -0.5801  -0.5763  -0.5503
 -0.5163  -0.5143  -0.4795  -0.4646  -0.4609  -0.4524  -0.4476  -0.4404
 -0.4390  -0.4297  -0.4168  -0.4160  -0.4075  -0.4043  -0.4017  -0.3993
 -0.3940  -0.3895  -0.3864  -0.3809  -0.3720  -0.3506  -0.3483  -0.3472
 -0.3429  -0.3422  -0.3376  -0.3338  -0.3323  -0.3253  -0.2973  -0.2758
 -0.2754  -0.2686  -0.2003  -0.1943

          Ground-State Mulliken Net Atomic Charges

     Atom                 Charge (a.u.)
  ----------------------------------------
      1 C                    -0.363869
      2 C                    -0.110040
      3 C                     0.045416
      4 C                    -0.057360
      5 N                    -0.511052
      6 Si                    0.905426
      7 C                    -0.292338
      8 C                    -0.462699
      9 C                    -0.464228
     10 C                    -0.283999
     11 C                    -0.464169
     12 C                    -0.460822
     13 C                    -0.292213
     14 C                    -0.460425
     15 C                    -0.459708
     16 C                    -0.056291
     17 C                     0.043896
     18 C                    -0.111070
     19 C                    -0.360624
     20 H                     0.132397
     21 H                     0.147003
     22 H                     0.119211
     23 H                     0.140358
     24 H                     0.147656
     25 H                     0.148986
     26 H                     0.154571
     27 H                     0.145607
     28 H                     0.150517
     29 H                     0.142900
     30 H                     0.161458
     31 H                     0.148516
     32 H                     0.149329
     33 H                     0.148261
     34 H                     0.144624
     35 H                     0.142176
     36 H                     0.140998
     37 H                     0.172428
     38 H                     0.138185
     39 H                     0.148543
     40 H                     0.150469
     41 H                     0.143413
     42 H                     0.165515
     43 H                     0.137175
     44 H                     0.151866
     45 H                     0.146915
     46 H                     0.135652
     47 H                     0.127978
     48 H                     0.133461
  ----------------------------------------
  Sum of atomic charges =     0.000000

                    Cartesian Multipole Moments
 -----------------------------------------------------------------
    Charge (ESU x 10^10)
                 0.0000
    Dipole Moment (Debye)
         X      -3.1478      Y       0.2631      Z       0.0091
       Tot       3.1588
    Quadrupole Moments (Debye-Ang)
        XX    -128.3200     XY      -0.4453     YY    -122.0782
        XZ      -0.9314     YZ      -1.6094     ZZ    -128.7335

 Total job time:  112.14s(wall), 110.89s(cpu)
        *  Thank you very much for using Q-Chem.  Have a nice day.  *
