 Q-Chem 5.2, Q-Chem, Inc., Pleasanton, CA (2019)
 Q-Chem 5.2.1 for Intel X86 EM64T Linux

User input:
--------------------------------------------------------------
$molecule
0 1
C        -2.42060210710000   -1.85205640630000   -0.46238265460000
C        -2.40862701770000   -0.71289219010000    0.21655216760000
C        -1.35914602520000    0.30367985620000    0.14778076970000
C        -1.72437860500000    1.65129360750000    0.21814239650000
N        -0.87666753430000    2.65165118670000    0.09068807140000
C         0.39754083450000    2.37250727900000   -0.09522963310000
C         0.91459066390000    1.07431342820000   -0.13987120900000
C         2.35803228050000    0.88754684960000   -0.26487327230000
C         3.07245085960000   -0.03040180700000    0.36932415590000
C         0.00311198470000    0.01703818460000   -0.02346165590000
C         0.48616568460000   -1.39970057340000   -0.11036583150000
O         1.01827731910000   -1.86802608420000   -1.07418185850000
O         0.28624353820000   -2.13540095370000    1.00489891950000
H        -3.24676188790000   -2.53802655660000   -0.38678759190000
H        -1.62652014630000   -2.13714436350000   -1.13129908270000
H        -3.25685755140000   -0.44213984460000    0.83383325950000
H        -2.76055886670000    1.92803311480000    0.36237272280000
H         1.05629691570000    3.22525176460000   -0.19286395040000
H         2.85271935390000    1.61681106080000   -0.89332713140000
H         2.63577946010000   -0.75053097420000    1.04062041680000
H         4.13942891470000   -0.09197509330000    0.24430006170000
H        -0.20478227810000   -1.65343366350000    1.68327658470000
$end

$rem
BASIS = 6-31G*
GUI = 2
METHOD = B3LYP
PRINT_ORBITALS false
MOLDEN_FORMAT false
--------------------------------------------------------------

             Standard Nuclear Orientation (Angstroms)
    I     Atom           X                Y                Z
 ----------------------------------------------------------------
    1      C       2.9078891775    -0.8825420805     0.4982843287
    2      C       2.5042948381     0.1920604723    -0.1658933356
    3      C       1.1622146716     0.7707079891    -0.1063411572
    4      C       1.0283372638     2.1615556717    -0.1513742801
    5      N      -0.1202038335     2.7951696264    -0.0290605242
    6      C      -1.2160691668     2.0802299407     0.1259688223
    7      C      -1.2412611091     0.6824723040     0.1426908295
    8      C      -2.5271338266    -0.0046592534     0.2344107742
    9      C      -2.8609418294    -1.1031334441    -0.4267674846
   10      C      -0.0131230561     0.0179357090     0.0320402794
   11      C       0.0347506034    -1.4795180628     0.0901972679
   12      O      -0.3121233051    -2.1245320154     1.0362672453
   13      O       0.4990407527    -2.0750099266    -1.0300096222
   14      H       3.9243020496    -1.2307462159     0.4314382551
   15      H       2.2557422685    -1.4429219979     1.1463346731
   16      H       3.2113602084     0.7571464383    -0.7613546949
   17      H       1.9017932587     2.7893268425    -0.2698422449
   18      H      -2.1352299618     2.6431294212     0.2205880593
   19      H      -3.2573443762     0.4902593544     0.8615821769
   20      H      -2.1875626645    -1.6091617070    -1.0978878135
   21      H      -3.8389942257    -1.5401630060    -0.3253616869
   22      H       0.7982752987    -1.4373764551    -1.6914303054
 ----------------------------------------------------------------

    9    -591.6271403582      6.16e-06  Convergence criterion met
 Total energy in the final basis set =     -591.6271403582

                    Orbital Energies (a.u.)
 --------------------------------------------------------------

 Alpha MOs
 -- Occupied --
-19.2022 -19.1423 -14.3401 -10.3294 -10.2326 -10.2316 -10.2300 -10.2245
-10.2219 -10.2105 -10.2025 -10.1997 -10.1928  -1.1119  -1.0310  -0.9641
 -0.8524  -0.8276  -0.7687  -0.7510  -0.6877  -0.6563  -0.6301  -0.6012
 -0.5770  -0.5548  -0.5209  -0.4990  -0.4719  -0.4697  -0.4548  -0.4483
 -0.4437  -0.4322  -0.4136  -0.4052  -0.3910  -0.3860  -0.3566  -0.3379
 -0.3223  -0.3158  -0.2851  -0.2643  -0.2604  -0.2432

          Ground-State Mulliken Net Atomic Charges

     Atom                 Charge (a.u.)
  ----------------------------------------
      1 C                    -0.332405
      2 C                    -0.171550
      3 C                     0.103120
      4 C                    -0.009001
      5 N                    -0.395980
      6 C                    -0.009108
      7 C                     0.107070
      8 C                    -0.124092
      9 C                    -0.328018
     10 C                    -0.032516
     11 C                     0.510787
     12 O                    -0.422582
     13 O                    -0.559432
     14 H                     0.156819
     15 H                     0.187332
     16 H                     0.145568
     17 H                     0.147591
     18 H                     0.149234
     19 H                     0.146634
     20 H                     0.157509
     21 H                     0.155752
     22 H                     0.417269
  ----------------------------------------
  Sum of atomic charges =     0.000000

                    Cartesian Multipole Moments
 -----------------------------------------------------------------
    Charge (ESU x 10^10)
                 0.0000
    Dipole Moment (Debye)
         X       0.8690      Y       0.9289      Z      -2.1631
       Tot       2.5094
    Quadrupole Moments (Debye-Ang)
        XX     -61.7891     XY      -0.5716     YY     -87.6969
        XZ      -1.8237     YZ       3.4070     ZZ     -73.8830

 Total job time:  34.07s(wall), 33.81s(cpu)
        *  Thank you very much for using Q-Chem.  Have a nice day.  *
