 Q-Chem 5.2, Q-Chem, Inc., Pleasanton, CA (2019)
 Q-Chem 5.2.1 for Intel X86 EM64T Linux

User input:
--------------------------------------------------------------
$molecule
0 1
C         3.69191996060000    0.64817046600000   -0.02106299480000
C         2.78766453360000   -0.32318188760000    0.00672461740000
C         1.34225001340000   -0.15066066310000    0.00595491460000
C         0.68679158370000    1.09267157550000   -0.00361561620000
C        -0.68677929150000    1.09265838330000   -0.00549698380000
C        -1.34223400900000   -0.15068391350000    0.00268143910000
C        -2.78764594320000   -0.32329404070000    0.00011214590000
C        -3.69198678390000    0.64826409150000   -0.01376916120000
N        -0.64421052150000   -1.28639862920000    0.01448014240000
N         0.64423479390000   -1.28638899890000    0.01613946150000
H         4.74572581730000    0.42929668810000   -0.01946284840000
H         3.42948026100000    1.69267443000000   -0.04725394130000
H         3.09275342140000   -1.36024683260000    0.03020120740000
H         1.24424906150000    2.01686361850000   -0.00807720960000
H        -1.24422575120000    2.01684125670000   -0.01219927030000
H        -3.09266432540000   -1.36061031590000    0.01011700480000
H        -3.42964357660000    1.69304807010000   -0.02436151400000
H        -4.74577464320000    0.42929445930000   -0.01518899860000
$end

$rem
BASIS = 6-31G*
GUI = 2
METHOD = B3LYP
PRINT_ORBITALS false
MOLDEN_FORMAT false
--------------------------------------------------------------

             Standard Nuclear Orientation (Angstroms)
    I     Atom           X                Y                Z
 ----------------------------------------------------------------
    1      C       3.6919213680    -0.6090675220     0.0129501982
    2      C       2.7876653140     0.3625439950    -0.0034043833
    3      C       1.3422504669     0.1900272237    -0.0044924171
    4      C       0.6867900569    -1.0533312786    -0.0093595842
    5      C      -0.6867806082    -1.0533384339    -0.0073305785
    6      C      -1.3422331882     0.1900154150    -0.0009304022
    7      C      -2.7876444198     0.3625855021     0.0038081034
    8      C      -3.6919861178    -0.6090674033     0.0064492881
    9      N      -0.6442082208     1.3257896696     0.0004484638
   10      N       0.6442369088     1.3257978951    -0.0013493188
   11      H       4.7457275770    -0.3901912051     0.0137907818
   12      H       3.4294819534    -1.6538056754     0.0269800530
   13      H       3.0927541903     1.3998119143    -0.0148114499
   14      H       1.2442457717    -1.9775131168    -0.0157418871
   15      H      -1.2442285837    -1.9775359447    -0.0113524195
   16      H      -3.0926613620     1.3999482564     0.0059403491
   17      H      -3.4296443052    -1.6539041578     0.0048219476
   18      H      -4.7457732879    -0.3901280129     0.0105372632
 ----------------------------------------------------------------

    9    -419.0896339752      1.71e-06  Convergence criterion met
 Total energy in the final basis set =     -419.0896339752

                    Orbital Energies (a.u.)
 --------------------------------------------------------------

 Alpha MOs
 -- Occupied --
-14.3580 -14.3576 -10.2353 -10.2353 -10.2193 -10.2187 -10.1981 -10.1981
-10.1945 -10.1945  -1.0301  -0.8554  -0.8359  -0.7811  -0.7594  -0.6768
 -0.6589  -0.5932  -0.5783  -0.5324  -0.5158  -0.4820  -0.4462  -0.4396
 -0.4368  -0.4356  -0.4227  -0.3756  -0.3650  -0.3452  -0.3165  -0.3142
 -0.2829  -0.2360  -0.2195

          Ground-State Mulliken Net Atomic Charges

     Atom                 Charge (a.u.)
  ----------------------------------------
      1 C                    -0.348641
      2 C                    -0.084325
      3 C                     0.309026
      4 C                    -0.147703
      5 C                    -0.147698
      6 C                     0.309040
      7 C                    -0.084321
      8 C                    -0.348652
      9 N                    -0.330738
     10 N                    -0.330728
     11 H                     0.156101
     12 H                     0.143493
     13 H                     0.155285
     14 H                     0.147495
     15 H                     0.147491
     16 H                     0.155282
     17 H                     0.143491
     18 H                     0.156102
  ----------------------------------------
  Sum of atomic charges =     0.000000

                    Cartesian Multipole Moments
 -----------------------------------------------------------------
    Charge (ESU x 10^10)
                 0.0000
    Dipole Moment (Debye)
         X       0.0001      Y      -3.7450      Z      -0.0067
       Tot       3.7450
    Quadrupole Moments (Debye-Ang)
        XX     -47.5885     XY       0.0001     YY     -58.8049
        XZ      -0.0056     YZ      -0.0166     ZZ     -60.7747

 Total job time:  16.76s(wall), 16.67s(cpu)
        *  Thank you very much for using Q-Chem.  Have a nice day.  *
