 Q-Chem 5.2, Q-Chem, Inc., Pleasanton, CA (2019)
 Q-Chem 5.2.1 for Intel X86 EM64T Linux

User input:
--------------------------------------------------------------
$molecule
0 1
C        -3.52517710900000    1.43239343760000    0.61487851870000
C        -2.36706501980000    1.70585146500000    0.03248448400000
C        -1.19359261960000    0.82941546470000   -0.04136278220000
C         0.04566851810000    1.41597082740000    0.21749259280000
C         1.23369491490000    0.70706173630000    0.21231335740000
C         2.53138849780000    1.43297598170000    0.43869498680000
C         3.20639178980000    1.74165569690000   -0.89875081930000
C         1.18970119070000   -0.65308834160000   -0.11049744130000
C         2.38355466420000   -1.51410638390000   -0.15508394690000
C         3.16612128170000   -1.77549222680000    0.87845413910000
C        -0.03461050750000   -1.22621181830000   -0.42881953410000
C        -1.23145668550000   -0.52471932110000   -0.38740921950000
C        -2.49342085040000   -1.25600774980000   -0.75468637820000
C        -2.93336596670000   -2.20549027330000    0.36134922900000
H        -4.32347954240000    2.15553226440000    0.64324554860000
H        -3.71881505460000    0.49497410150000    1.10590299980000
H        -2.21426768850000    2.69036210970000   -0.39596709690000
H         0.07220889220000    2.47219597440000    0.45142512600000
H         3.20795268310000    0.83245887340000    1.04559557510000
H         2.33639941250000    2.36736875790000    0.96881974110000
H         3.43913751450000    0.81770974050000   -1.42340378290000
H         4.13072839860000    2.29286832830000   -0.74096604580000
H         2.54838654960000    2.33772202490000   -1.52755242420000
H         2.56817517570000   -1.99707117080000   -1.10828885420000
H         2.98453251400000   -1.34870025240000    1.85144669630000
H         4.01094222560000   -2.43912719020000    0.79929605340000
H        -0.05459563110000   -2.27033040510000   -0.71214534790000
H        -2.30919501400000   -1.84372645620000   -1.65830902920000
H        -3.29153078340000   -0.54568517510000   -0.97167580780000
H        -2.16737427670000   -2.95495575840000    0.54712249180000
H        -3.85545144100000   -2.71322135180000    0.08646107270000
H        -3.09958223030000   -1.66171326920000    1.28856559580000
$end

$rem
BASIS = 6-31G*
GUI = 2
METHOD = B3LYP
PRINT_ORBITALS false
MOLDEN_FORMAT false
--------------------------------------------------------------

             Standard Nuclear Orientation (Angstroms)
    I     Atom           X                Y                Z
 ----------------------------------------------------------------
    1      C       3.4414756683     1.6390959324    -0.5934988027
    2      C       2.2635426069     1.8486802485    -0.0245226759
    3      C       1.1430746578     0.9051886193     0.0462309551
    4      C      -0.1259647845     1.4153777804    -0.2295721988
    5      C      -1.2701503518     0.6376729257    -0.2291364361
    6      C      -2.6060511635     1.2838011583    -0.4742814896
    7      C      -3.3113044266     1.5634658132     0.8539050224
    8      C      -1.1492963095    -0.7147195619     0.1063920333
    9      C      -2.2907270755    -1.6442718613     0.1475559857
   10      C      -3.0462411045    -1.9601499547    -0.8908820851
   11      C       0.1034390379    -1.2118775941     0.4413944947
   12      C       1.2572250552    -0.4413635475     0.4048809113
   13      C       2.5563791705    -1.0937675850     0.7906222589
   14      C       3.0625544418    -2.0250840571    -0.3125733121
   15      H       4.1960251776     2.4078121916    -0.6209137117
   16      H       3.6948725801     0.7105977917    -1.0741617974
   17      H       2.0487594349     2.8260641548     0.3935298087
   18      H      -0.2123708258     2.4661708467    -0.4733103996
   19      H      -3.2400026933     0.6392744905    -1.0820471111
   20      H      -2.4612066553     2.2235335943    -1.0109991770
   21      H      -3.4943993701     0.6318872632     1.3847016707
   22      H      -4.2649022499     2.0578162182     0.6824453054
   23      H      -2.6958337102     2.2026406030     1.4834356470
   24      H      -2.4560173238    -2.1291728307     1.1033224309
   25      H      -2.8804711205    -1.5316689025    -1.8659537166
   26      H      -3.8512359160    -2.6717815189    -0.8136573175
   27      H       0.1820981997    -2.2505527787     0.7343503659
   28      H       2.3981469823    -1.6836341360     1.6977641214
   29      H       3.3090575895    -0.3357715617     1.0086572657
   30      H       2.3439335383    -2.8199929915    -0.4987379458
   31      H       4.0101814420    -2.4751681466    -0.0244355856
   32      H       3.2056323862    -1.4803441837    -1.2430778201
 ----------------------------------------------------------------

    8    -544.2923184903      8.07e-06  Convergence criterion met
 Total energy in the final basis set =     -544.2923184903

                    Orbital Energies (a.u.)
 --------------------------------------------------------------

 Alpha MOs
 -- Occupied --
-10.1880 -10.1866 -10.1860 -10.1859 -10.1841 -10.1834 -10.1786 -10.1765
-10.1764 -10.1764 -10.1760 -10.1759 -10.1705 -10.1677  -0.8667  -0.8122
 -0.7862  -0.7691  -0.7544  -0.7180  -0.7028  -0.6429  -0.6176  -0.6024
 -0.5889  -0.5664  -0.5265  -0.4898  -0.4854  -0.4651  -0.4465  -0.4400
 -0.4323  -0.4288  -0.4195  -0.4065  -0.4009  -0.3889  -0.3838  -0.3668
 -0.3554  -0.3506  -0.3467  -0.3383  -0.3365  -0.3207  -0.3158  -0.2860
 -0.2605  -0.2325  -0.2154

          Ground-State Mulliken Net Atomic Charges

     Atom                 Charge (a.u.)
  ----------------------------------------
      1 C                    -0.339531
      2 C                    -0.139523
      3 C                     0.099704
      4 C                    -0.260468
      5 C                     0.140624
      6 C                    -0.337475
      7 C                    -0.437045
      8 C                     0.084314
      9 C                    -0.151093
     10 C                    -0.321048
     11 C                    -0.241180
     12 C                     0.138386
     13 C                    -0.346288
     14 C                    -0.442980
     15 H                     0.140736
     16 H                     0.150491
     17 H                     0.134892
     18 H                     0.117448
     19 H                     0.147495
     20 H                     0.137540
     21 H                     0.151477
     22 H                     0.141097
     23 H                     0.146911
     24 H                     0.140467
     25 H                     0.147270
     26 H                     0.141750
     27 H                     0.118268
     28 H                     0.141747
     29 H                     0.152136
     30 H                     0.149605
     31 H                     0.142812
     32 H                     0.151461
  ----------------------------------------
  Sum of atomic charges =     0.000000

                    Cartesian Multipole Moments
 -----------------------------------------------------------------
    Charge (ESU x 10^10)
                 0.0000
    Dipole Moment (Debye)
         X      -0.1319      Y      -0.0937      Z       0.1153
       Tot       0.1987
    Quadrupole Moments (Debye-Ang)
        XX     -81.0337     XY       1.3663     YY     -81.2205
        XZ       0.6413     YZ      -1.2572     ZZ     -86.5477

 Total job time:  44.26s(wall), 44.12s(cpu)
        *  Thank you very much for using Q-Chem.  Have a nice day.  *
