 Q-Chem 5.2, Q-Chem, Inc., Pleasanton, CA (2019)
 Q-Chem 5.2.1 for Intel X86 EM64T Linux

User input:
--------------------------------------------------------------
$molecule
0 1
C        -3.56592760500000   -1.67341795410000    0.01102818060000
C        -3.00126931080000   -0.47308721150000   -0.00394883590000
C        -1.57138895090000   -0.18672404720000   -0.00303028290000
C        -0.57455129830000   -1.19244034850000    0.00018321620000
C         0.76216210080000   -0.85723659220000    0.00184700090000
C         1.87499016370000   -1.79290078040000    0.00478876010000
C         1.77922781980000   -3.11737859800000   -0.00084368280000
C         1.05914300010000    0.52442643910000    0.00076758980000
N         2.21086370750000    1.16923149430000    0.00260244180000
C         1.89568397000000    2.47745924510000   -0.00040226450000
C         0.53218882930000    2.66659292400000   -0.00427705480000
N        -0.00497165720000    1.42433509150000   -0.00345225620000
N        -1.28175728320000    1.09682393350000   -0.00563718780000
H        -4.63650647320000   -1.78328533500000    0.00981479920000
H        -3.00030553280000   -2.58950522910000    0.02568013690000
H        -3.61206253470000    0.41902449460000   -0.01668391950000
H        -0.87403238330000   -2.22602437950000    0.00080092330000
H         2.84183747670000   -1.30938582870000    0.01145275320000
H         0.83433201240000   -3.63464911070000   -0.00857362170000
H         2.65712036190000   -3.73960282150000    0.00169076920000
H         2.66620649910000    3.22323550120000    0.00045779500000
H        -0.06964023850000    3.55026511140000   -0.00733361900000
$end

$rem
BASIS = 6-31G*
GUI = 2
METHOD = B3LYP
PRINT_ORBITALS false
MOLDEN_FORMAT false
--------------------------------------------------------------

             Standard Nuclear Orientation (Angstroms)
    I     Atom           X                Y                Z
 ----------------------------------------------------------------
    1      C       3.8653115039     0.5509127335    -0.0090734063
    2      C       2.7408102944     1.2545985248     0.0043626950
    3      C       1.3834954518     0.7214404068     0.0031843372
    4      C       1.0896649105    -0.6637748414     0.0013842660
    5      C      -0.2157456179    -1.1054380683    -0.0006116886
    6      C      -0.6450238362    -2.4945313119    -0.0022230364
    7      C       0.1523887974    -3.5563798500     0.0051535663
    8      C      -1.2133098824    -0.1044103133    -0.0013353438
    9      N      -2.5307454930    -0.1856150383    -0.0039273319
   10      C      -2.9738268835     1.0850086147    -0.0026795021
   11      C      -1.9297041717     1.9820598931     0.0008315872
   12      N      -0.8056399805     1.2282524334     0.0016054450
   13      N       0.4452161207     1.6439477205     0.0041173579
   14      H       4.8249758894     1.0380000788    -0.0078037968
   15      H       3.8855634570    -0.5255487801    -0.0224663874
   16      H       2.7715189576     2.3353475592     0.0158667622
   17      H       1.9009279482    -1.3707663615     0.0021089471
   18      H      -1.7197044807    -2.6112968142    -0.0094461812
   19      H       1.2268815256    -3.4798781023     0.0134891379
   20      H      -0.2489981174    -4.5547538200     0.0035153237
   21      H      -4.0253843509     1.2950363441    -0.0044620024
   22      H      -1.9019587570     3.0508493578     0.0026690541
 ----------------------------------------------------------------

    9    -550.6666155795      5.51e-06  Convergence criterion met
 Total energy in the final basis set =     -550.6666155795

                    Orbital Energies (a.u.)
 --------------------------------------------------------------

 Alpha MOs
 -- Occupied --
-14.4404 -14.3732 -14.3145 -10.2481 -10.2425 -10.2250 -10.2141 -10.2097
-10.2051 -10.2007 -10.2003 -10.1964 -10.1945  -1.0825  -0.9650  -0.8719
 -0.8327  -0.7896  -0.7674  -0.7408  -0.6754  -0.6597  -0.6234  -0.5809
 -0.5694  -0.5542  -0.4985  -0.4966  -0.4863  -0.4638  -0.4595  -0.4496
 -0.4298  -0.4214  -0.3953  -0.3815  -0.3797  -0.3620  -0.3599  -0.3108
 -0.3087  -0.2659  -0.2620  -0.2368  -0.2208

          Ground-State Mulliken Net Atomic Charges

     Atom                 Charge (a.u.)
  ----------------------------------------
      1 C                    -0.349787
      2 C                    -0.087920
      3 C                     0.323729
      4 C                    -0.260420
      5 C                     0.175741
      6 C                    -0.099623
      7 C                    -0.342840
      8 C                     0.451930
      9 N                    -0.519907
     10 C                    -0.019537
     11 C                     0.030205
     12 N                    -0.298522
     13 N                    -0.382423
     14 H                     0.154690
     15 H                     0.147573
     16 H                     0.150921
     17 H                     0.136090
     18 H                     0.174250
     19 H                     0.147963
     20 H                     0.157793
     21 H                     0.143976
     22 H                     0.166120
  ----------------------------------------
  Sum of atomic charges =     0.000000

                    Cartesian Multipole Moments
 -----------------------------------------------------------------
    Charge (ESU x 10^10)
                 0.0000
    Dipole Moment (Debye)
         X       1.8779      Y      -0.3823      Z       0.0021
       Tot       1.9164
    Quadrupole Moments (Debye-Ang)
        XX     -69.4424     XY      -5.7719     YY     -67.0497
        XZ      -0.0045     YZ       0.0161     ZZ     -78.2685

 Total job time:  31.77s(wall), 31.66s(cpu)
        *  Thank you very much for using Q-Chem.  Have a nice day.  *
