 Q-Chem 5.4, Q-Chem, Inc., Pleasanton, CA (2021)
 Q-Chem 5.4.2 for Intel X86 EM64T Linux

User input:
--------------------------------------------------------------
$molecule
0 1
C           -4.06143434640000       -2.06412259630000       -0.00715975170000
C           -2.73549263920000       -1.99511367100000        0.00009760510000
C           -1.92377988590000       -0.78486953860000        0.00046309360000
C           -2.46453615560000        0.49948693670000        0.00512758040000
C           -1.65177834080000        1.61632816060000        0.00461257710000
C           -0.26795907620000        1.48966650660000       -0.00070887050000
O            0.59596312420000        2.54104059670000       -0.00199650410000
C            0.07700745120000        3.84884953960000        0.00488463390000
C            0.30629580030000        0.19864287560000       -0.00453995250000
C            1.75657773310000        0.10176297030000       -0.00986258800000
C            2.51289703580000       -0.98468246460000       -0.00063932090000
F            2.12938849620000       -2.25836742990000        0.01606924050000
F            3.84603471140000       -0.94240752570000       -0.00677945990000
C           -0.53514313990000       -0.90662917770000       -0.00378482570000
H           -4.57068662020000       -3.01234888170000       -0.00733222560000
H           -4.69319904050000       -1.19253169610000       -0.01371511760000
H           -2.16394045030000       -2.91503453760000        0.00566100560000
H           -3.53406048310000        0.63764502730000        0.00995425210000
H           -2.11102469600000        2.59228833660000        0.00847738920000
H            0.94445063480000        4.50723600430000        0.00265418110000
H           -0.51893625680000        4.04061540930000        0.90262083880000
H           -0.52809187390000        4.04675170210000       -0.88536055710000
H            2.28897169490000        1.04062485200000       -0.02170552400000
H           -0.10656269060000       -1.89582565250000       -0.00750849530000
$end

$rem
BASIS = 6-31G*
GUI = 2
METHOD = B3LYP
PRINT_ORBITALS false
MOLDEN_FORMAT false
$end
--------------------------------------------------------------

             Standard Nuclear Orientation (Angstroms)
    I     Atom           X                Y                Z
 ----------------------------------------------------------------
    1      C       4.1456477313     1.7259426023    -0.0067750731
    2      C       2.8192345086     1.7851984169     0.0005066157
    3      C       1.8945293160     0.6589263038     0.0006535763
    4      C       2.3088307734    -0.6716170689     0.0050458378
    5      C       1.3920981211    -1.7048211066     0.0043310032
    6      C       0.0269581554    -1.4452204628    -0.0009253435
    7      O      -0.9343830142    -2.4083256958    -0.0023982537
    8      C      -0.5440434044    -3.7601089390     0.0042065987
    9      C      -0.4200422506    -0.1048088305    -0.0044819046
   10      C      -1.8542084793     0.1315622241    -0.0097434801
   11      C      -2.5021639930     1.2859156187    -0.0002813424
   12      F      -1.9975431057     2.5166478211     0.0166707368
   13      F      -3.8331600858     1.3724777324    -0.0063915995
   14      C       0.5241213484     0.9141124444    -0.0035300832
   15      H       4.7440209241     2.6206048395    -0.0067726869
   16      H       4.6903618499     0.7974592712    -0.0135227900
   17      H       2.3391154206     2.7559762999     0.0062702946
   18      H       3.3600330791    -0.9123331204     0.0098141477
   19      H       1.7550281160    -2.7205419664     0.0079875663
   20      H      -1.4709685528    -4.3317204292     0.0018695088
   21      H       0.0306237269    -4.0086654611     0.9018873265
   22      H       0.0391278223    -4.0152959538    -0.8860955225
   23      H      -2.4747118850    -0.7515438712    -0.0217587391
   24      H       0.1929913743     1.9400487618    -0.0070437402
 ----------------------------------------------------------------

    9    -700.0384564026      4.48e-06  Convergence criterion met
 Total energy in the final basis set =     -700.0384564026

                    Orbital Energies (a.u.)
 --------------------------------------------------------------

 Alpha MOs
 -- Occupied --
-24.7382 -24.7271 -19.1876 -10.3492 -10.2515 -10.2472 -10.2018 -10.1941
-10.1896 -10.1889 -10.1883 -10.1861 -10.1857 -10.1744  -1.2782  -1.2172
 -1.0779  -0.8672  -0.8105  -0.7836  -0.7453  -0.7389  -0.6957  -0.6450
 -0.6155  -0.6086  -0.5724  -0.5556  -0.5393  -0.5121  -0.5093  -0.5009
 -0.4792  -0.4712  -0.4426  -0.4396  -0.4344  -0.4338  -0.4276  -0.4142
 -0.4045  -0.3922  -0.3786  -0.3670  -0.3438  -0.3401  -0.3288  -0.3023
 -0.2751  -0.2287  -0.2006

          Ground-State Mulliken Net Atomic Charges

     Atom                 Charge (a.u.)
  ----------------------------------------
      1 C                    -0.359935
      2 C                    -0.110822
      3 C                     0.190014
      4 C                    -0.193771
      5 C                    -0.195269
      6 C                     0.324156
      7 O                    -0.510654
      8 C                    -0.216229
      9 C                     0.130210
     10 C                    -0.286716
     11 C                     0.545555
     12 F                    -0.238201
     13 F                    -0.251636
     14 C                    -0.295804
     15 H                     0.141979
     16 H                     0.138352
     17 H                     0.127003
     18 H                     0.127645
     19 H                     0.131898
     20 H                     0.172050
     21 H                     0.155321
     22 H                     0.155274
     23 H                     0.180146
     24 H                     0.139434
  ----------------------------------------
  Sum of atomic charges =     0.000000

                    Cartesian Multipole Moments
 -----------------------------------------------------------------
    Charge (ESU x 10^10)
                 0.0000
    Dipole Moment (Debye)
         X       0.9752      Y      -2.6002      Z       0.0013
       Tot       2.7771
    Quadrupole Moments (Debye-Ang)
        XX     -79.5144     XY       1.2935     YY     -66.8350
        XZ       0.0129     YZ      -0.0304     ZZ     -82.2370

 Total job time:  58.66s(wall), 54.96s(cpu)
        *  Thank you very much for using Q-Chem.  Have a nice day.  *
