 Q-Chem 5.4, Q-Chem, Inc., Pleasanton, CA (2021)
 Q-Chem 5.4.2 for Intel X86 EM64T Linux

User input:
--------------------------------------------------------------
$molecule
0 1
C           -2.44892210600000        3.24216617930000        0.01514244290000
C           -2.84759898390000        1.97587199310000       -0.00276306120000
C           -1.99757529570000        0.79207860010000       -0.00284793660000
C           -2.58938215020000       -0.46992225450000       -0.00713176090000
C           -1.82747206400000       -1.62262561110000       -0.00553148540000
C           -0.44052320180000       -1.55132931930000       -0.00032280550000
O            0.38115433860000       -2.63621872570000        0.00186817460000
C           -0.19016880360000       -3.92198737110000        0.00335664650000
C            0.18508292680000       -0.28342641340000        0.00224805840000
C            1.63846309080000       -0.24695319420000        0.00673441610000
C            2.44002593580000        0.80649943210000       -0.00069329380000
F            2.11088664290000        2.09557591630000       -0.01402526060000
F            3.77016681770000        0.70812833870000        0.00439881680000
C           -0.60579530510000        0.85789031120000        0.00120274880000
H           -3.16007418120000        4.05023180840000        0.01410186240000
H           -1.41181271390000        3.52887974150000        0.03196801410000
H           -3.90962988980000        1.76169447800000       -0.01777306090000
H           -3.66668282660000       -0.55389603090000       -0.01123208590000
H           -2.32795203630000       -2.57801598900000       -0.00853501200000
H            0.64986865470000       -4.61496239640000        0.00853624490000
H           -0.79473878250000       -4.09491151720000       -0.89245057460000
H           -0.80161144840000       -4.08972155020000        0.89547378330000
H            2.13135502540000       -1.20719618200000        0.01636348070000
H           -0.12962941050000        1.82261621070000        0.00339891270000
$end

$rem
BASIS = 6-31G*
GUI = 2
METHOD = B3LYP
PRINT_ORBITALS false
MOLDEN_FORMAT false
$end
--------------------------------------------------------------

             Standard Nuclear Orientation (Angstroms)
    I     Atom           X                Y                Z
 ----------------------------------------------------------------
    1      C       3.4253650997    -2.1459932036     0.0146177157
    2      C       3.3139106197    -0.8231058747    -0.0030412742
    3      C       2.0783727463    -0.0502195711    -0.0030238222
    4      C       2.1472425068     1.3419516377    -0.0070415892
    5      C       1.0050261039     2.1194947841    -0.0053347799
    6      C      -0.2512231140     1.5274223057    -0.0002829616
    7      O      -1.4230167042     2.2195482964     0.0019973252
    8      C      -1.3821156898     3.6259399135     0.0037535507
    9      C      -0.3491272630     0.1169695761     0.0020173491
   10      C      -1.6800521719    -0.4680812577     0.0063455143
   11      C      -2.0221085683    -1.7468537196    -0.0013365137
   12      F      -1.2285891965    -2.8147362950    -0.0148424120
   13      F      -3.2901544096    -2.1603904465     0.0036321203
   14      C       0.8155730662    -0.6390497119     0.0008703821
   15      H       4.3898874142    -2.6239094305     0.0135210045
   16      H       2.5745222781    -2.8046829969     0.0312882544
   17      H       4.2153270466    -0.2220780572    -0.0179053579
   18      H       3.1121765736     1.8282967933    -0.0110154500
   19      H       1.1056992241     3.1933276853    -0.0081313926
   20      H      -2.4222344384     3.9484768205     0.0089571660
   21      H      -0.8882914698     4.0154381458    -0.8919623439
   22      H      -0.8800274554     4.0129044893     0.8959618618
   23      H      -2.5003511988     0.2334289383     0.0160781847
   24      H       0.7409381005    -1.7122973554     0.0028606706
 ----------------------------------------------------------------

    9    -700.0384365075      3.75e-06  Convergence criterion met
 Total energy in the final basis set =     -700.0384365075

                    Orbital Energies (a.u.)
 --------------------------------------------------------------

 Alpha MOs
 -- Occupied --
-24.7385 -24.7274 -19.1877 -10.3496 -10.2516 -10.2471 -10.2027 -10.1942
-10.1889 -10.1883 -10.1880 -10.1857 -10.1849 -10.1735  -1.2784  -1.2175
 -1.0779  -0.8670  -0.8103  -0.7841  -0.7466  -0.7350  -0.6978  -0.6451
 -0.6175  -0.6044  -0.5734  -0.5522  -0.5408  -0.5199  -0.5123  -0.4901
 -0.4792  -0.4711  -0.4450  -0.4393  -0.4347  -0.4324  -0.4304  -0.4103
 -0.3969  -0.3944  -0.3920  -0.3556  -0.3475  -0.3399  -0.3287  -0.3021
 -0.2754  -0.2268  -0.2016

          Ground-State Mulliken Net Atomic Charges

     Atom                 Charge (a.u.)
  ----------------------------------------
      1 C                    -0.356943
      2 C                    -0.117687
      3 C                     0.190703
      4 C                    -0.209676
      5 C                    -0.194329
      6 C                     0.323542
      7 O                    -0.510469
      8 C                    -0.215991
      9 C                     0.130731
     10 C                    -0.287694
     11 C                     0.546207
     12 F                    -0.237612
     13 F                    -0.251374
     14 C                    -0.280087
     15 H                     0.141103
     16 H                     0.144612
     17 H                     0.123193
     18 H                     0.128002
     19 H                     0.131453
     20 H                     0.171923
     21 H                     0.155317
     22 H                     0.155328
     23 H                     0.180735
     24 H                     0.139012
  ----------------------------------------
  Sum of atomic charges =     0.000000

                    Cartesian Multipole Moments
 -----------------------------------------------------------------
    Charge (ESU x 10^10)
                 0.0000
    Dipole Moment (Debye)
         X       0.3589      Y       2.8530      Z       0.0069
       Tot       2.8755
    Quadrupole Moments (Debye-Ang)
        XX     -77.2845     XY      -3.5261     YY     -67.9465
        XZ      -0.0495     YZ      -0.0420     ZZ     -82.2404

 Total job time:  64.30s(wall), 55.46s(cpu)
        *  Thank you very much for using Q-Chem.  Have a nice day.  *
