 Q-Chem 5.2, Q-Chem, Inc., Pleasanton, CA (2019)
 Q-Chem 5.2.1 for Intel X86 EM64T Linux

User input:
--------------------------------------------------------------
$molecule
0 1
C        -4.41820664450000    1.76116437370000   -0.92142665400000
C        -3.26889803720000    1.98538558530000   -0.29632724030000
C        -2.27482997250000    0.98455133150000    0.07201109870000
C        -2.34685704650000   -0.35333252910000   -0.30881055970000
C        -1.38687747350000   -1.29038834950000    0.05260450950000
C        -1.49268771870000   -2.69472357600000   -0.33849207640000
C        -2.10572715190000   -3.14727122600000   -1.42388367890000
C        -0.30036239690000   -0.87188436650000    0.83893159500000
O         0.67784642920000   -1.75777689950000    1.22896377840000
C         1.64605618360000   -2.03930092240000    0.21753638220000
C         2.39434981190000   -0.79368218210000   -0.17666511630000
C         3.49890586970000   -0.37442079200000    0.55326902000000
C         4.13546787070000    0.81315119260000    0.23914561000000
C         3.66799116570000    1.59702825550000   -0.80221747750000
C         2.56414169450000    1.18817093280000   -1.53077000940000
C         1.92929240580000   -0.00095626520000   -1.21868663950000
C        -0.20032851030000    0.45459072310000    1.23315980560000
C        -1.17507127250000    1.35197338220000    0.85169436590000
F        -1.04507716010000    2.63560238020000    1.25338960550000
H        -5.09237128840000    2.56817413510000   -1.15004553200000
H        -4.73960315710000    0.77915019220000   -1.22343665690000
H        -3.01505790580000    2.99691532110000   -0.00753964810000
H        -3.18826417030000   -0.68294492690000   -0.89630804900000
H        -1.00030956310000   -3.38646869590000    0.33343103980000
H        -2.57770448300000   -2.49024820400000   -2.13538049870000
H        -2.14649865320000   -4.19899844640000   -1.64931721980000
H         1.15454370870000   -2.48329175710000   -0.65946182350000
H         2.31246750650000   -2.77513904730000    0.67287419840000
H         3.85562560240000   -0.98151711050000    1.37267157290000
H         4.99543953940000    1.12999976590000    0.81072590510000
H         4.16206864380000    2.52625418310000   -1.04428031950000
H         2.19377012010000    1.79775452500000   -2.34162962870000
H         1.06500782620000   -0.31707391390000   -1.78657516630000
H         0.63565210950000    0.78106136390000    1.83106299890000
$end

$rem
BASIS = 6-31G*
GUI = 2
METHOD = B3LYP
PRINT_ORBITALS false
MOLDEN_FORMAT false
--------------------------------------------------------------

             Standard Nuclear Orientation (Angstroms)
    I     Atom           X                Y                Z
 ----------------------------------------------------------------
    1      C       4.5384919875     1.4747201728     0.8504715840
    2      C       3.3837228117     1.8070872215     0.2865788646
    3      C       2.3226825768     0.8920190506    -0.1163572536
    4      C       2.3310704391    -0.4725183227     0.1631309573
    5      C       1.3079017724    -1.3264484697    -0.2295322916
    6      C       1.3465602004    -2.7597547621     0.0541019340
    7      C       1.9684833706    -3.3247686679     1.0800953597
    8      C       0.2214999163    -0.7919867786    -0.9423103697
    9      O      -0.8178962895    -1.5918439816    -1.3590922957
   10      C      -1.7665155776    -1.8952103245    -0.3354900341
   11      C      -2.4292786624    -0.6437657755     0.1759157303
   12      C      -3.5317712716    -0.1117857345    -0.4799312978
   13      C      -4.0889992820     1.0817810601    -0.0567207502
   14      C      -3.5434547590     1.7590972031     1.0208036418
   15      C      -2.4411211948     1.2376183656     1.6760572510
   16      C      -1.8856230652     0.0424434881     1.2548304921
   17      C       0.1840729616     0.5637128125    -1.2349478000
   18      C       1.2203803948     1.3758394598    -0.8257385826
   19      F       1.1503737882     2.6910604415    -1.1278209946
   20      H       5.2646697386     2.2245994280     1.1119601878
   21      H       4.8133394438     0.4568864305     1.0680283850
   22      H       3.1784020486     2.8496552124     0.0818330204
   23      H       3.1713657139    -0.8903032090     0.6933415010
   24      H       0.7936463664    -3.3715947611    -0.6475862737
   25      H       2.5003765399    -2.7493529028     1.8194571998
   26      H       1.9568125543    -4.3910620315     1.2267070839
   27      H      -1.2722721738    -2.4295315908     0.4879554525
   28      H      -2.4884187286    -2.5576971546    -0.8180471444
   29      H      -3.9493913910    -0.6356788662    -1.3274953802
   30      H      -4.9480175796     1.4866746195    -0.5713051389
   31      H      -3.9755887754     2.6930748639     1.3480859655
   32      H      -2.0100203508     1.7638856788     2.5147797072
   33      H      -1.0223819256    -0.3616804291     1.7656280799
   34      H      -0.6513309681     0.9788526013    -1.7759599390
 ----------------------------------------------------------------

    9    -831.8460362662      3.35e-06  Convergence criterion met
 Total energy in the final basis set =     -831.8460362662

                    Orbital Energies (a.u.)
 --------------------------------------------------------------

 Alpha MOs
 -- Occupied --
-24.7064 -19.1680 -10.2705 -10.2464 -10.2418 -10.2003 -10.1971 -10.1951
-10.1924 -10.1920 -10.1912 -10.1898 -10.1895 -10.1893 -10.1889 -10.1887
-10.1881 -10.1824 -10.1803  -1.2174  -1.0591  -0.8717  -0.8617  -0.8055
 -0.7894  -0.7718  -0.7500  -0.7342  -0.7270  -0.6845  -0.6432  -0.6223
 -0.6103  -0.5891  -0.5778  -0.5566  -0.5412  -0.5204  -0.5084  -0.4886
 -0.4829  -0.4776  -0.4651  -0.4597  -0.4503  -0.4422  -0.4400  -0.4275
 -0.4255  -0.4203  -0.4180  -0.3946  -0.3811  -0.3677  -0.3675  -0.3622
 -0.3572  -0.3448  -0.3437  -0.3352  -0.3112  -0.2812  -0.2780  -0.2538
 -0.2516  -0.2346  -0.2152

          Ground-State Mulliken Net Atomic Charges

     Atom                 Charge (a.u.)
  ----------------------------------------
      1 C                    -0.350331
      2 C                    -0.113719
      3 C                     0.117053
      4 C                    -0.281911
      5 C                     0.149827
      6 C                    -0.130236
      7 C                    -0.347637
      8 C                     0.281478
      9 O                    -0.524480
     10 C                    -0.134462
     11 C                     0.141313
     12 C                    -0.168418
     13 C                    -0.130060
     14 C                    -0.124180
     15 C                    -0.128505
     16 C                    -0.167012
     17 C                    -0.228488
     18 C                     0.304588
     19 F                    -0.292548
     20 H                     0.146231
     21 H                     0.141860
     22 H                     0.143642
     23 H                     0.135958
     24 H                     0.151890
     25 H                     0.142154
     26 H                     0.145451
     27 H                     0.149802
     28 H                     0.153855
     29 H                     0.129743
     30 H                     0.130693
     31 H                     0.131132
     32 H                     0.132097
     33 H                     0.137720
     34 H                     0.155502
  ----------------------------------------
  Sum of atomic charges =     0.000000

                    Cartesian Multipole Moments
 -----------------------------------------------------------------
    Charge (ESU x 10^10)
                 0.0000
    Dipole Moment (Debye)
         X      -0.7799      Y      -0.5848      Z       1.3933
       Tot       1.7005
    Quadrupole Moments (Debye-Ang)
        XX    -101.3700     XY      -2.1196     YY    -104.9034
        XZ       5.7220     YZ       0.3990     ZZ    -110.1628

 Total job time:  79.30s(wall), 79.08s(cpu)
        *  Thank you very much for using Q-Chem.  Have a nice day.  *
