 Q-Chem 5.4, Q-Chem, Inc., Pleasanton, CA (2021)
 Q-Chem 5.4.2 for Intel X86 EM64T Linux

User input:
--------------------------------------------------------------
$molecule
0 1
C            3.23352480480000       -2.36420617470000        0.57493067590000
C            2.11653885100000       -2.65127734620000       -0.08007043860000
C            0.91456427060000       -1.81852261520000       -0.11770128670000
C           -0.32090857810000       -2.46005246850000       -0.03142445140000
C           -1.50260593860000       -1.75001686430000        0.00672946930000
C           -1.45742519260000       -0.36288406420000       -0.06544490600000
C           -2.73153950410000        0.43006687150000        0.00156065570000
F           -3.78712874480000       -0.24334410820000       -0.48301923770000
F           -3.05187324070000        0.76311611860000        1.26758892710000
F           -2.66769974740000        1.58106190700000       -0.68348275410000
C           -0.24653778770000        0.29838020990000       -0.18143235030000
C            0.95062583240000       -0.41480456240000       -0.21316461030000
C            2.21719274130000        0.27550923970000       -0.42658824560000
C            2.50749903220000        1.51738172490000       -0.07115946750000
F            1.73849102910000        2.36340983620000        0.59993458690000
F            3.67788250280000        2.09499980650000       -0.32253253110000
H            4.06679620320000       -3.04568562450000        0.58705805450000
H            3.34671438220000       -1.46061325330000        1.14987470340000
H            2.02443097460000       -3.60305894120000       -0.58836851360000
H           -0.34655137940000       -3.53790937550000        0.02654372660000
H           -2.45064391410000       -2.25905593760000        0.08287330210000
H           -0.23968852950000        1.37310405830000       -0.26951910660000
H            3.00072687090000       -0.27332479740000       -0.92780571940000
$end

$rem
BASIS = 6-31G*
GUI = 2
METHOD = B3LYP
PRINT_ORBITALS false
MOLDEN_FORMAT false
$end
--------------------------------------------------------------

             Standard Nuclear Orientation (Angstroms)
    I     Atom           X                Y                Z
 ----------------------------------------------------------------
    1      C       3.2474448436     2.1855241668    -0.5613147055
    2      C       2.1386966979     2.5045143790     0.0929151718
    3      C       0.9113566509     1.7093761746     0.1250252883
    4      C      -0.3034206886     2.3893421512     0.0392366471
    5      C      -1.5065382179     1.7165400756    -0.0038969879
    6      C      -1.5046191881     0.3283916910     0.0626479220
    7      C      -2.8026315280    -0.4242953551    -0.0098392241
    8      F      -3.8376887393     0.2796281135     0.4756677126
    9      F      -3.1307931078    -0.7420861591    -1.2777832568
   10      F      -2.7758701090    -1.5794892704     0.6705727130
   11      C      -0.3150841522    -0.3706554175     0.1780228474
   12      C       0.9036020030     0.3048396151     0.2147747866
   13      C       2.1477047277    -0.4253688273     0.4275624020
   14      C       2.3999436696    -1.6742119212     0.0675331375
   15      F       1.6062725623    -2.4931982242    -0.6083749279
   16      F       3.5513406436    -2.2889444442     0.3185659378
   17      H       4.1015118918     2.8408180334    -0.5691863482
   18      H       3.3335751958     1.2811904717    -1.1397737042
   19      H       2.0752598520     3.4566282801     0.6049638847
   20      H      -0.2954484923     3.4677016859    -0.0143407077
   21      H      -2.4381560682     2.2551051439    -0.0795971373
   22      H      -0.3417997183    -1.4454215228     0.2616986312
   23      H       2.9469771833     0.0968073748     0.9323980627
 ----------------------------------------------------------------

    9    -922.5469217058      3.76e-06  Convergence criterion met
 Total energy in the final basis set =     -922.5469217058

                    Orbital Energies (a.u.)
 --------------------------------------------------------------

 Alpha MOs
 -- Occupied --
-24.7479 -24.7398 -24.7217 -24.7212 -24.7138 -10.4279 -10.3621 -10.2217
-10.2161 -10.2154 -10.2074 -10.2073 -10.2070 -10.2060 -10.2048 -10.1960
 -1.3036  -1.2910  -1.2302  -1.2142  -1.2079  -0.8919  -0.8273  -0.8104
 -0.7643  -0.7511  -0.6964  -0.6598  -0.6349  -0.6251  -0.5888  -0.5809
 -0.5773  -0.5742  -0.5626  -0.5254  -0.5221  -0.5063  -0.4819  -0.4626
 -0.4538  -0.4522  -0.4500  -0.4469  -0.4442  -0.4353  -0.4204  -0.4175
 -0.4158  -0.4070  -0.3923  -0.3875  -0.3783  -0.3677  -0.3551  -0.3078
 -0.3054  -0.2564  -0.2310

          Ground-State Mulliken Net Atomic Charges

     Atom                 Charge (a.u.)
  ----------------------------------------
      1 C                    -0.333796
      2 C                    -0.143240
      3 C                     0.110944
      4 C                    -0.194569
      5 C                    -0.156973
      6 C                    -0.008386
      7 C                     0.775863
      8 F                    -0.267882
      9 F                    -0.260243
     10 F                    -0.264554
     11 C                    -0.225439
     12 C                     0.125549
     13 C                    -0.327571
     14 C                     0.556215
     15 F                    -0.233433
     16 F                    -0.244525
     17 H                     0.151896
     18 H                     0.163451
     19 H                     0.143004
     20 H                     0.139407
     21 H                     0.154883
     22 H                     0.159930
     23 H                     0.179470
  ----------------------------------------
  Sum of atomic charges =     0.000000

                    Cartesian Multipole Moments
 -----------------------------------------------------------------
    Charge (ESU x 10^10)
                -0.0000
    Dipole Moment (Debye)
         X       2.2082      Y       2.4414      Z       0.3530
       Tot       3.3108
    Quadrupole Moments (Debye-Ang)
        XX     -89.6201     XY       1.2060     YY     -82.0015
        XZ      -0.3822     YZ       0.2409     ZZ     -88.8723

 Total job time:  77.62s(wall), 67.58s(cpu)
        *  Thank you very much for using Q-Chem.  Have a nice day.  *
