 Q-Chem 5.4, Q-Chem, Inc., Pleasanton, CA (2021)
 Q-Chem 5.4.2 for Intel X86 EM64T Linux

User input:
--------------------------------------------------------------
$molecule
0 1
C           -2.45727746600000        3.67231710760000        0.24916859830000
C           -2.27520030400000        2.44803756680000       -0.22630484250000
C           -1.01882146700000        1.70304203990000       -0.12317031990000
C            0.19468235970000        2.37413225380000       -0.25445802700000
C            1.39916939430000        1.70131174550000       -0.20786641720000
C            1.39644080490000        0.32354738180000       -0.03416680480000
C            2.69257230410000       -0.43025287240000        0.05410387100000
F            3.71442925200000        0.21577298060000       -0.52656217370000
F            3.06316475120000       -0.64109399780000        1.33446141600000
F            2.63107217810000       -1.64161606500000       -0.51823725530000
C            0.20415909820000       -0.36867244550000        0.10701223350000
C           -1.01233673320000        0.30733515820000        0.06520384330000
C           -2.27208542040000       -0.39913020140000        0.27393267210000
C           -2.51460650760000       -1.67600425980000        0.01828811730000
F           -1.68784388600000       -2.56537000670000       -0.50969341610000
F           -3.68871747360000       -2.25348181090000        0.24822768630000
H           -3.39656150830000        4.18596372830000        0.13895952930000
H           -1.68537148770000        4.19805208560000        0.78586481180000
H           -3.08532946850000        1.94312291000000       -0.73516172410000
H            0.18826339240000        3.44056479660000       -0.41714276620000
H            2.33164684780000        2.23304324190000       -0.31512752320000
H            0.23114972540000       -1.43540856290000        0.26201683380000
H           -3.09813092320000        0.16310493990000        0.68168416710000
$end

$rem
BASIS = 6-31G*
GUI = 2
METHOD = B3LYP
PRINT_ORBITALS false
MOLDEN_FORMAT false
$end
--------------------------------------------------------------

             Standard Nuclear Orientation (Angstroms)
    I     Atom           X                Y                Z
 ----------------------------------------------------------------
    1      C      -2.5825401308    -3.4558608787    -0.2451154812
    2      C      -2.3379452688    -2.2427895438     0.2310344636
    3      C      -1.0458963178    -1.5618844456     0.1255801973
    4      C       0.1325850271    -2.2933510178     0.2533630138
    5      C       1.3693064928    -1.6819750296     0.2045096812
    6      C       1.4355410008    -0.3056426432     0.0320689826
    7      C       2.7677701097     0.3820394261    -0.0586083119
    8      F       3.7571600819    -0.3152080418     0.5190313088
    9      F       3.1455149185     0.5752715469    -1.3396541315
   10      F       2.7686733041     1.5943739501     0.5149782997
   11      C       0.2792954923     0.4458684920    -0.1056365580
   12      C      -0.9695911436    -0.1680810611    -0.0615406793
   13      C      -2.1926585160     0.6011235116    -0.2666219101
   14      C      -2.3699879898     1.8883245575    -0.0092395049
   15      F      -1.4982660288     2.7343968844     0.5175762163
   16      F      -3.5140701159     2.5244153935    -0.2358528868
   17      H      -3.5462331688    -3.9216816916    -0.1331328900
   18      H      -1.8393381251    -4.0192383686    -0.7841289454
   19      H      -3.1204351614    -1.6982530431     0.7422809473
   20      H       0.0728632931    -3.3582746943     0.4150935724
   21      H       2.2740786971    -2.2600869570     0.3090629607
   22      H       0.3595959709     1.5100518039    -0.2597357989
   23      H      -3.0469134796     0.0816071485    -0.6729124638
 ----------------------------------------------------------------

    9    -922.5489905630      4.14e-06  Convergence criterion met
 Total energy in the final basis set =     -922.5489905630

                    Orbital Energies (a.u.)
 --------------------------------------------------------------

 Alpha MOs
 -- Occupied --
-24.7526 -24.7439 -24.7218 -24.7203 -24.7128 -10.4273 -10.3677 -10.2211
-10.2153 -10.2140 -10.2113 -10.2070 -10.2063 -10.2044 -10.2030 -10.1960
 -1.3030  -1.2958  -1.2346  -1.2140  -1.2069  -0.8913  -0.8268  -0.8131
 -0.7609  -0.7530  -0.6962  -0.6586  -0.6413  -0.6227  -0.5876  -0.5824
 -0.5769  -0.5766  -0.5631  -0.5294  -0.5238  -0.5058  -0.4847  -0.4584
 -0.4537  -0.4522  -0.4515  -0.4471  -0.4456  -0.4395  -0.4225  -0.4194
 -0.4156  -0.4072  -0.3917  -0.3871  -0.3801  -0.3629  -0.3541  -0.3092
 -0.3064  -0.2544  -0.2338

          Ground-State Mulliken Net Atomic Charges

     Atom                 Charge (a.u.)
  ----------------------------------------
      1 C                    -0.332494
      2 C                    -0.137689
      3 C                     0.107655
      4 C                    -0.193492
      5 C                    -0.160697
      6 C                    -0.004785
      7 C                     0.774969
      8 F                    -0.267265
      9 F                    -0.263088
     10 F                    -0.264589
     11 C                    -0.229423
     12 C                     0.122611
     13 C                    -0.321446
     14 C                     0.561969
     15 F                    -0.228848
     16 F                    -0.242193
     17 H                     0.151173
     18 H                     0.151638
     19 H                     0.147678
     20 H                     0.140902
     21 H                     0.153980
     22 H                     0.159228
     23 H                     0.174207
  ----------------------------------------
  Sum of atomic charges =     0.000000

                    Cartesian Multipole Moments
 -----------------------------------------------------------------
    Charge (ESU x 10^10)
                -0.0000
    Dipole Moment (Debye)
         X      -2.3813      Y      -2.1685      Z       0.0183
       Tot       3.2208
    Quadrupole Moments (Debye-Ang)
        XX     -89.3222     XY       1.0151     YY     -82.0279
        XZ       0.5494     YZ      -0.1028     ZZ     -89.1858

 Total job time:  72.59s(wall), 66.31s(cpu)
        *  Thank you very much for using Q-Chem.  Have a nice day.  *
