 Q-Chem 5.2, Q-Chem, Inc., Pleasanton, CA (2019)
 Q-Chem 5.2.1 for Intel X86 EM64T Linux

User input:
--------------------------------------------------------------
$molecule
0 1
C        -0.07236535940000   -1.77845265270000   -2.04479390510000
C        -1.14154526480000   -0.99525363720000   -2.00810314560000
C        -1.60035270760000   -0.21135839510000   -0.86117967610000
C        -2.97559514240000   -0.04937042830000   -0.68862321800000
C        -3.49026555480000    0.62431964190000    0.40094726930000
C        -2.62982891220000    1.16690359100000    1.34147147810000
C        -1.26453495960000    1.03691690150000    1.17443037210000
C        -0.73376728660000    0.35353467140000    0.08486602050000
C         0.73377471240000    0.35387610530000   -0.08472266760000
C         1.26458858960000    1.03906722960000   -1.17310917930000
C         2.62988679980000    1.17010819050000   -1.33938794400000
C         3.49024925360000    0.62679504940000   -0.39922147680000
C         2.97552596060000   -0.04894516260000    0.68905166930000
C         1.60031197360000   -0.21211214730000    0.86074875480000
C         1.14162998750000   -0.99831444550000    2.00610614650000
C         0.07227197700000   -1.78134658040000    2.04168300780000
H         0.17325074310000   -2.34806137160000   -2.92528072970000
H         0.59120354760000   -1.89244204930000   -1.20510716750000
H        -1.79634557980000   -0.95305702670000   -2.87110125310000
H        -3.64681228980000   -0.47743683580000   -1.42031766760000
H        -4.55907522170000    0.72936309220000    0.51616000510000
H        -3.02173759160000    1.69932772800000    2.19541308950000
H        -0.58694895070000    1.47638064810000    1.89251101570000
H         0.58705450840000    1.47924685480000   -1.89080543010000
H         3.02184283460000    1.70407781500000   -2.19234626300000
H         4.55903801940000    0.73288492640000   -0.51367297390000
H         3.64670599210000   -0.47767378140000    1.42039496100000
H         1.79672445270000   -0.95808135830000    2.86896399760000
H        -0.59174008230000   -1.89356393480000    1.20212154280000
H        -0.17297050750000   -2.35273891510000    2.92111839610000
$end

$rem
BASIS = 6-31G*
GUI = 2
METHOD = B3LYP
PRINT_ORBITALS false
MOLDEN_FORMAT false
--------------------------------------------------------------

             Standard Nuclear Orientation (Angstroms)
    I     Atom           X                Y                Z
 ----------------------------------------------------------------
    1      C      -0.0086360441    -2.0448572067     1.7638914226
    2      C      -1.0781848026    -2.0423202917     0.9803407879
    3      C      -1.5725587589    -0.9109149040     0.1955187028
    4      C      -2.9524923711    -0.7817794958     0.0329922151
    5      C      -3.5009350335     0.2906199061    -0.6416024481
    6      C      -2.6703082599     1.2573573221    -1.1845686319
    7      C      -1.3004811070     1.1334002044    -1.0540502360
    8      C      -0.7359525001     0.0615194529    -0.3697585017
    9      C       0.7361948582    -0.0618582766    -0.3695352047
   10      C       1.3011800724    -1.1334856660    -1.0538172327
   11      C       2.6710728608    -1.2568571767    -1.1843269353
   12      C       3.5012816987    -0.2897454385    -0.6413961124
   13      C       2.9523857708     0.7822680058     0.0334399999
   14      C       1.5724012961     0.9107652108     0.1960689703
   15      C       1.0776886243     2.0416708445     0.9813450955
   16      C       0.0074847898     2.0441478060     1.7640258793
   17      H       0.2643474766    -2.9168035128     2.3341791108
   18      H       0.6281750848    -1.1846513694     1.8775074330
   19      H      -1.7055224334    -2.9255018216     0.9385362159
   20      H      -3.6005195423    -1.5339203201     0.4613554274
   21      H      -4.5728035187     0.3721101476    -0.7470514683
   22      H      -3.0886898693     2.0981984529    -1.7176982334
   23      H      -0.6456565929     1.8721264304    -1.4937994982
   24      H       0.6466829727    -1.8724208194    -1.4937113421
   25      H       3.0898195472    -2.0974350447    -1.7175914547
   26      H       4.5731743952    -0.3706182302    -0.7470808886
   27      H       3.6001067576     1.5346359929     0.4618718018
   28      H       1.7053516183     2.9246656990     0.9407201792
   29      H      -0.6298471668     1.1842061979     1.8766163347
   30      H      -0.2654652930     2.9158264160     2.3347397584
 ----------------------------------------------------------------

    8    -618.0853462521      7.74e-06  Convergence criterion met
 Total energy in the final basis set =     -618.0853462521

                    Orbital Energies (a.u.)
 --------------------------------------------------------------

 Alpha MOs
 -- Occupied --
-10.1914 -10.1914 -10.1908 -10.1905 -10.1849 -10.1849 -10.1836 -10.1836
-10.1831 -10.1831 -10.1827 -10.1827 -10.1813 -10.1813 -10.1738 -10.1737
 -0.8753  -0.8508  -0.7895  -0.7890  -0.7697  -0.7304  -0.7250  -0.7132
 -0.6343  -0.6152  -0.6006  -0.5942  -0.5641  -0.5455  -0.5134  -0.4938
 -0.4765  -0.4686  -0.4515  -0.4504  -0.4329  -0.4267  -0.4200  -0.4159
 -0.4089  -0.3769  -0.3708  -0.3680  -0.3618  -0.3582  -0.3368  -0.3335
 -0.3280  -0.2952  -0.2844  -0.2584  -0.2418  -0.2230  -0.2110

          Ground-State Mulliken Net Atomic Charges

     Atom                 Charge (a.u.)
  ----------------------------------------
      1 C                    -0.335374
      2 C                    -0.139730
      3 C                     0.139421
      4 C                    -0.200990
      5 C                    -0.121258
      6 C                    -0.135336
      7 C                    -0.133096
      8 C                    -0.020752
      9 C                    -0.020684
     10 C                    -0.133125
     11 C                    -0.135339
     12 C                    -0.121255
     13 C                    -0.201023
     14 C                     0.139494
     15 C                    -0.139691
     16 C                    -0.335431
     17 H                     0.139953
     18 H                     0.163443
     19 H                     0.129033
     20 H                     0.126221
     21 H                     0.126803
     22 H                     0.127689
     23 H                     0.133958
     24 H                     0.133946
     25 H                     0.127688
     26 H                     0.126802
     27 H                     0.126221
     28 H                     0.129005
     29 H                     0.163463
     30 H                     0.139943
  ----------------------------------------
  Sum of atomic charges =     0.000000

                    Cartesian Multipole Moments
 -----------------------------------------------------------------
    Charge (ESU x 10^10)
                 0.0000
    Dipole Moment (Debye)
         X      -0.0001      Y      -0.0001      Z      -0.1116
       Tot       0.1116
    Quadrupole Moments (Debye-Ang)
        XX     -84.4790     XY       0.6836     YY     -86.7797
        XZ      -0.0007     YZ       0.0015     ZZ     -94.4031

 Total job time:  59.07s(wall), 56.19s(cpu)
        *  Thank you very much for using Q-Chem.  Have a nice day.  *
