 Q-Chem 5.4, Q-Chem, Inc., Pleasanton, CA (2021)
 Q-Chem 5.4.2 for Intel X86 EM64T Linux

User input:
--------------------------------------------------------------
$molecule
0 1
C           -4.00924581420000        0.83484224740000        0.66832711250000
C           -2.98130855820000        0.85181917130000       -0.16795634380000
C           -1.89854825820000       -0.13505882350000       -0.15932582450000
C           -2.20393156580000       -1.46754664120000        0.10679598230000
C           -1.21784854310000       -2.43471611600000        0.11830822630000
C            0.09355826390000       -2.07018425600000       -0.10782162420000
C            0.42813689830000       -0.73775951010000       -0.34587717770000
C            1.85839113230000       -0.44663463580000       -0.51509753800000
C            2.53797180390000        0.48107329420000        0.13363888090000
F            2.06316365790000        1.33901490170000        1.02932833340000
F            3.84770485970000        0.68437236030000       -0.01260082940000
C           -0.56953932090000        0.23978804260000       -0.41309108510000
C           -0.23912882030000        1.66093581970000       -0.75556352990000
H           -4.78842811560000        1.57631836660000        0.62157870670000
H           -4.10233398170000        0.09459928300000        1.44545500470000
H           -2.91638443590000        1.63905830060000       -0.90674502130000
H           -3.23273767330000       -1.74543853560000        0.27852659200000
H           -1.46978682700000       -3.46768703370000        0.30552117130000
H            0.87687818020000       -2.81345165630000       -0.08387935470000
H            2.42632110930000       -1.09639795530000       -1.16471539190000
H            0.74617860260000        1.73798507680000       -1.20719378500000
H           -0.25758575340000        2.28291424090000        0.13876826780000
H           -0.96295713830000        2.06557365840000       -1.45968692530000
$end

$rem
BASIS = 6-31G*
GUI = 2
METHOD = B3LYP
PRINT_ORBITALS false
MOLDEN_FORMAT false
$end
--------------------------------------------------------------

             Standard Nuclear Orientation (Angstroms)
    I     Atom           X                Y                Z
 ----------------------------------------------------------------
    1      C      -3.7952781261     1.2984328682     0.5903252358
    2      C      -2.7604871883     1.1730389033    -0.2280862171
    3      C      -1.7960410359     0.0717171846    -0.1705829933
    4      C      -2.2532731955    -1.2088326429     0.1306386135
    5      C      -1.3826986423    -2.2796422259     0.1887405653
    6      C      -0.0355635353    -2.0720026704    -0.0255462011
    7      C       0.4502792777    -0.7938866148    -0.2982092203
    8      C       1.9064340635    -0.6706517573    -0.4513196588
    9      C       2.6771620482     0.1953757698     0.1805866077
   10      F       2.2896816609     1.1295707725     1.0413448891
   11      F       4.0033607465     0.2456456831     0.0510212217
   12      C      -0.4298724958     0.2867364053    -0.4124961818
   13      C       0.0632724699     1.6500732167    -0.7922859398
   14      H      -4.4852309791     2.1207459725     0.5074788322
   15      H      -3.9819367368     0.5987248926     1.3878966283
   16      H      -2.5970464864     1.9238163374    -0.9892627273
   17      H      -3.3091187977    -1.3638795194     0.2928355448
   18      H      -1.7519904313    -3.2712596400     0.4029110142
   19      H       0.6586143135    -2.8972936125     0.0346345834
   20      H       2.4064813775    -1.4006114561    -1.0708773301
   21      H       1.0571486928     1.6015137896    -1.2288512024
   22      H       0.1026252000     2.2986794393     0.0822359352
   23      H      -0.6005296583     2.1104650762    -1.5208839363
 ----------------------------------------------------------------

    9    -624.8231692441      5.28e-06  Convergence criterion met
 Total energy in the final basis set =     -624.8231692441

                    Orbital Energies (a.u.)
 --------------------------------------------------------------

 Alpha MOs
 -- Occupied --
-24.7386 -24.7322 -10.3537 -10.2003 -10.1993 -10.1970 -10.1922 -10.1890
-10.1863 -10.1846 -10.1836 -10.1795 -10.1771  -1.2811  -1.2209  -0.8719
 -0.8129  -0.7874  -0.7626  -0.7243  -0.6871  -0.6404  -0.6208  -0.5892
 -0.5733  -0.5540  -0.5203  -0.5151  -0.5005  -0.4740  -0.4536  -0.4418
 -0.4393  -0.4325  -0.4304  -0.4141  -0.4082  -0.4056  -0.3891  -0.3743
 -0.3585  -0.3426  -0.3340  -0.2963  -0.2713  -0.2321  -0.2238

          Ground-State Mulliken Net Atomic Charges

     Atom                 Charge (a.u.)
  ----------------------------------------
      1 C                    -0.335775
      2 C                    -0.130904
      3 C                     0.095382
      4 C                    -0.177059
      5 C                    -0.132338
      6 C                    -0.168792
      7 C                     0.106609
      8 C                    -0.352473
      9 C                     0.572743
     10 F                    -0.235837
     11 F                    -0.248974
     12 C                     0.080938
     13 C                    -0.533524
     14 H                     0.142103
     15 H                     0.144891
     16 H                     0.133863
     17 H                     0.129628
     18 H                     0.128269
     19 H                     0.126828
     20 H                     0.168521
     21 H                     0.155872
     22 H                     0.174066
     23 H                     0.155960
  ----------------------------------------
  Sum of atomic charges =     0.000000

                    Cartesian Multipole Moments
 -----------------------------------------------------------------
    Charge (ESU x 10^10)
                 0.0000
    Dipole Moment (Debye)
         X      -0.6839      Y      -0.4792      Z      -0.4937
       Tot       0.9701
    Quadrupole Moments (Debye-Ang)
        XX     -73.5376     XY      -2.4809     YY     -68.8970
        XZ      -2.5626     YZ      -1.7256     ZZ     -75.0739

 Total job time:  61.76s(wall), 52.41s(cpu)
        *  Thank you very much for using Q-Chem.  Have a nice day.  *
