 Q-Chem 5.2, Q-Chem, Inc., Pleasanton, CA (2019)
 Q-Chem 5.2.1 for Intel X86 EM64T Linux

User input:
--------------------------------------------------------------
$molecule
0 1
C         4.16648328020000   -0.01601472820000    0.43713837200000
C         3.01764529930000    0.51106684490000    0.02394258120000
C         1.75195758790000   -0.17407843720000   -0.01407520420000
N         1.62328132430000   -1.52142237960000    0.06358351920000
N         0.36193868350000   -1.92744376550000   -0.07118809070000
C        -0.35431271330000   -0.82295045200000   -0.23598602660000
N        -1.72864793900000   -0.94216769590000   -0.40686310740000
C        -2.68679689970000   -0.08830268120000    0.06987205620000
C        -4.08798982850000   -0.61694579290000   -0.16140498090000
O        -2.44787857320000    0.97023290040000    0.59795753090000
C         0.46382983720000    0.33115186380000   -0.21784779430000
C         0.06069242520000    1.71017696260000   -0.40658955520000
C         0.60818666970000    2.74382172980000    0.21832074860000
H         5.07913543140000    0.55298569000000    0.42336944200000
H         4.24211815130000   -1.02064226430000    0.81938974590000
H         2.98174764120000    1.53372326370000   -0.32508021080000
H         2.35772332110000   -2.20201267190000    0.16449680980000
H        -2.01314699230000   -1.88118950530000   -0.64931499880000
H        -4.23530981660000   -0.84978020300000   -1.21356137730000
H        -4.80796769980000    0.13491331120000    0.14779899510000
H        -4.24489102130000   -1.52101085380000    0.42357823040000
H        -0.75119472410000    1.86470628740000   -1.10355025340000
H         1.37539185650000    2.62060414240000    0.96438888210000
H         0.27651479790000    3.75042781680000    0.03205779290000
$end

$rem
BASIS = 6-31G*
GUI = 2
METHOD = B3LYP
PRINT_ORBITALS false
MOLDEN_FORMAT false
--------------------------------------------------------------

             Standard Nuclear Orientation (Angstroms)
    I     Atom           X                Y                Z
 ----------------------------------------------------------------
    1      C       4.1700049812    -0.2598510859     0.2945924223
    2      C       3.0390102915     0.3134549106    -0.1060891205
    3      C       1.7349950360    -0.2952616550    -0.0631572168
    4      N       1.5310114344    -1.6266078591     0.0912193757
    5      N       0.2439363918    -1.9623311124     0.0224462561
    6      C      -0.4124272716    -0.8266751745    -0.1764311805
    7      N      -1.7968669743    -0.8715539401    -0.2927137947
    8      C      -2.6848201604     0.0619188375     0.1705129569
    9      C      -4.1222178119    -0.3925940722     0.0168892689
   10      O      -2.3647234938     1.1299669542     0.6323193636
   11      C       0.4717182695     0.2754520963    -0.2488226498
   12      C       0.1428099879     1.6646817193    -0.4972453646
   13      C       0.7729566538     2.6943255893     0.0517837976
   14      H       5.1131028752     0.2516787289     0.2185094456
   15      H       4.2013763735    -1.2461565076     0.7274095705
   16      H       3.0495916496     1.3170528192    -0.5080977957
   17      H       2.2278164061    -2.3440859414     0.2029320327
   18      H      -2.1446295204    -1.8029879665    -0.4743080001
   19      H      -4.3226710708    -0.6700863918    -1.0154694999
   20      H      -4.7848802226     0.4162087029     0.3101194632
   21      H      -4.3092646591    -1.2541923339     0.6547128248
   22      H      -0.6845386251     1.8316791080    -1.1728195020
   23      H       1.5594202493     2.5637652072     0.7762374068
   24      H       0.4937186757     3.7081323303    -0.1766411944
 ----------------------------------------------------------------

    9    -589.0113582500      5.14e-06  Convergence criterion met
 Total energy in the final basis set =     -589.0113582500

                    Orbital Energies (a.u.)
 --------------------------------------------------------------

 Alpha MOs
 -- Occupied --
-19.1150 -14.4091 -14.3698 -14.3478 -10.2903 -10.2432 -10.2271 -10.2019
-10.1904 -10.1902 -10.1875 -10.1824 -10.1660  -1.0592  -1.0416  -0.9412
 -0.8351  -0.8151  -0.7695  -0.7435  -0.7344  -0.6435  -0.6356  -0.6068
 -0.5735  -0.5431  -0.5204  -0.5008  -0.4740  -0.4694  -0.4618  -0.4514
 -0.4428  -0.4212  -0.4115  -0.4023  -0.3995  -0.3801  -0.3751  -0.3486
 -0.3223  -0.3088  -0.2970  -0.2745  -0.2486  -0.2184  -0.2116

          Ground-State Mulliken Net Atomic Charges

     Atom                 Charge (a.u.)
  ----------------------------------------
      1 C                    -0.364307
      2 C                    -0.081652
      3 C                     0.336798
      4 N                    -0.501244
      5 N                    -0.355543
      6 C                     0.477216
      7 N                    -0.687948
      8 C                     0.567814
      9 C                    -0.551936
     10 O                    -0.469205
     11 C                    -0.009930
     12 C                    -0.070696
     13 C                    -0.356956
     14 H                     0.152832
     15 H                     0.129741
     16 H                     0.153540
     17 H                     0.342080
     18 H                     0.337093
     19 H                     0.171476
     20 H                     0.189176
     21 H                     0.172844
     22 H                     0.138419
     23 H                     0.141050
     24 H                     0.139337
  ----------------------------------------
  Sum of atomic charges =     0.000000

                    Cartesian Multipole Moments
 -----------------------------------------------------------------
    Charge (ESU x 10^10)
                 0.0000
    Dipole Moment (Debye)
         X       0.7779      Y      -2.3555      Z      -1.1476
       Tot       2.7333
    Quadrupole Moments (Debye-Ang)
        XX     -59.9588     XY       3.4707     YY     -73.7703
        XZ       4.4741     YZ      -2.4400     ZZ     -77.9020

 Total job time:  32.89s(wall), 32.77s(cpu)
        *  Thank you very much for using Q-Chem.  Have a nice day.  *
