 Q-Chem 5.2, Q-Chem, Inc., Pleasanton, CA (2019)
 Q-Chem 5.2.1 for Intel X86 EM64T Linux

User input:
--------------------------------------------------------------
$molecule
0 1
C         0.49184667850000    3.81166075710000   -0.03299938970000
C         1.10395297250000    2.63974389110000    0.08432021850000
C         0.48051062990000    1.32094311780000    0.06656824970000
C        -0.89551966910000    1.13137561770000   -0.02389335590000
C        -1.45851976720000   -0.14270061090000   -0.03323146080000
C        -2.90992412950000   -0.26600700770000   -0.12250621070000
C        -3.62139937400000   -1.37983023390000   -0.00174089980000
C        -0.61125013270000   -1.24860190220000    0.03447283170000
C         0.76149884070000   -1.08378269660000    0.12458511550000
C         1.66988686450000   -2.28757022670000    0.20730114400000
O         2.95660224920000   -2.06899160010000   -0.31991424060000
C         1.29874876230000    0.19388563260000    0.14517229920000
H         1.04415230960000    4.73541806990000   -0.00851537810000
H        -0.57312070770000    3.90584195720000   -0.15861269970000
H         2.18066107550000    2.62235257110000    0.20379817040000
H        -1.55079799250000    1.98731315270000   -0.08114528510000
H        -3.42923151780000    0.66939665770000   -0.29362613550000
H        -3.17447834060000   -2.34143987310000    0.18367086370000
H        -4.69511296980000   -1.36866763430000   -0.07906474480000
H        -1.02049150450000   -2.24706963550000    0.01228364740000
H         1.19030985250000   -3.14632473090000   -0.28683877180000
H         1.83104649520000   -2.55174328730000    1.25830878540000
H         2.86850651780000   -1.77777838290000   -1.23446754150000
H         2.37067377310000    0.31004994820000    0.22319596090000
$end

$rem
BASIS = 6-31G*
GUI = 2
METHOD = B3LYP
PRINT_ORBITALS false
MOLDEN_FORMAT false
--------------------------------------------------------------

             Standard Nuclear Orientation (Angstroms)
    I     Atom           X                Y                Z
 ----------------------------------------------------------------
    1      C       0.2476257687    -3.8328382855    -0.0533045987
    2      C      -0.5821428154    -2.8043607535     0.0713758308
    3      C      -0.2294108846    -1.3888397639     0.0608174310
    4      C       1.0825630451    -0.9326454760    -0.0296795431
    5      C       1.3848115399     0.4271217261    -0.0320354549
    6      C       2.7836903692     0.8331145426    -0.1217958328
    7      C       3.2632076319     2.0641294492     0.0048886483
    8      C       0.3372905888     1.3450328646     0.0428402396
    9      C      -0.9763187260     0.9137514195     0.1331298928
   10      C      -2.1029344823     1.9155797237     0.2236403743
   11      O      -3.3228515726     1.4518915562    -0.3037728746
   12      C      -1.2525905195    -0.4445517972     0.1466922441
   13      H      -0.1127921823    -4.8470796711    -0.0337633038
   14      H       1.3101398055    -3.7156762291    -0.1803530535
   15      H      -1.6411257286    -2.9990887775     0.1918497460
   16      H       1.8928303433    -1.6431518827    -0.0924814538
   17      H       3.4759833198     0.0186596340    -0.2988152717
   18      H       2.6367858294     2.9183947811     0.1962926669
   19      H       4.3181156642     2.2641431906    -0.0733929774
   20      H       0.5427776132     2.4044691225     0.0261497329
   21      H      -1.8020103687     2.8544373706    -0.2658682181
   22      H      -2.3106983658     2.1371659067     1.2763087110
   23      H      -3.1811637665     1.1887042862    -1.2200865558
   24      H      -2.2807786772    -0.7690720777     0.2249275853
 ----------------------------------------------------------------

    8    -501.5674078830      7.07e-06  Convergence criterion met
 Total energy in the final basis set =     -501.5674078830

                    Orbital Energies (a.u.)
 --------------------------------------------------------------

 Alpha MOs
 -- Occupied --
-19.1477 -10.2354 -10.1970 -10.1957 -10.1930 -10.1914 -10.1903 -10.1872
-10.1864 -10.1842 -10.1815 -10.1805  -1.0261  -0.8698  -0.8053  -0.7896
 -0.7439  -0.7238  -0.6804  -0.6315  -0.6171  -0.5703  -0.5406  -0.5157
 -0.5035  -0.4857  -0.4566  -0.4477  -0.4444  -0.4353  -0.4244  -0.4028
 -0.3802  -0.3745  -0.3681  -0.3570  -0.3418  -0.3242  -0.3179  -0.2879
 -0.2697  -0.2310  -0.2206

          Ground-State Mulliken Net Atomic Charges

     Atom                 Charge (a.u.)
  ----------------------------------------
      1 C                    -0.353181
      2 C                    -0.112253
      3 C                     0.188842
      4 C                    -0.264289
      5 C                     0.186633
      6 C                    -0.111499
      7 C                    -0.353662
      8 C                    -0.243307
      9 C                     0.109010
     10 C                    -0.085685
     11 O                    -0.607902
     12 C                    -0.258266
     13 H                     0.144970
     14 H                     0.143083
     15 H                     0.129086
     16 H                     0.125098
     17 H                     0.127308
     18 H                     0.142944
     19 H                     0.145062
     20 H                     0.120660
     21 H                     0.129894
     22 H                     0.166070
     23 H                     0.390905
     24 H                     0.140482
  ----------------------------------------
  Sum of atomic charges =     0.000000

                    Cartesian Multipole Moments
 -----------------------------------------------------------------
    Charge (ESU x 10^10)
                 0.0000
    Dipole Moment (Debye)
         X       1.0597      Y       0.0458      Z      -0.8292
       Tot       1.3463
    Quadrupole Moments (Debye-Ang)
        XX     -72.4066     XY       2.0041     YY     -64.7067
        XZ       2.0099     YZ      -0.0793     ZZ     -72.2550

 Total job time:  25.87s(wall), 25.51s(cpu)
        *  Thank you very much for using Q-Chem.  Have a nice day.  *
