 Q-Chem 5.2, Q-Chem, Inc., Pleasanton, CA (2019)
 Q-Chem 5.2.1 for Intel X86 EM64T Linux

User input:
--------------------------------------------------------------
$molecule
0 1
C        -3.70198530710000   -1.92227224050000   -0.14891552640000
C        -3.48581665260000   -0.63088390820000    0.07140418080000
C        -2.18853167460000    0.02713976290000    0.10359658820000
C        -2.11643129680000    1.42297010700000    0.17623997630000
N        -0.99544522960000    2.10739770700000    0.15355120220000
C         0.16783420610000    1.46696496040000    0.08303097160000
C         1.34958805730000    2.31156552420000   -0.05442098110000
C         2.40946820470000    2.00602618300000   -0.78906796480000
C         0.22189783990000    0.06048472120000    0.11100452600000
C         1.50102807310000   -0.68006801330000    0.26578021660000
O         2.35424729840000   -0.43268180750000    1.07820355250000
O         1.56875587000000   -1.71489743730000   -0.58822485210000
C         2.73277839140000   -2.52275296110000   -0.49045861350000
C        -0.96900648650000   -0.65055383720000    0.09989383470000
H        -4.69871127850000   -2.32799558670000   -0.16313411860000
H        -2.90470632100000   -2.62249524970000   -0.33109691710000
H        -4.32861519230000    0.03054087370000    0.22990883980000
H        -3.01999105920000    2.01664545580000    0.24586128210000
H         1.27216505750000    3.27177474500000    0.43549882950000
H         2.47889192050000    1.08171120500000   -1.33912304710000
H         3.24565026680000    2.67743564460000   -0.87942313410000
H         2.63978129950000   -3.28521716380000   -1.25945336440000
H         2.79534872670000   -2.97904914600000    0.49962491350000
H         3.62826941450000   -1.91927190660000   -0.65312321060000
H        -0.93723603480000   -1.72930210580000    0.11805522220000
$end

$rem
BASIS = 6-31G*
GUI = 2
METHOD = B3LYP
PRINT_ORBITALS false
MOLDEN_FORMAT false
--------------------------------------------------------------

             Standard Nuclear Orientation (Angstroms)
    I     Atom           X                Y                Z
 ----------------------------------------------------------------
    1      C       3.7267496867    -1.8402415363     0.2020071547
    2      C       3.4973367279    -0.5448259043     0.0225036167
    3      C       2.1913129776     0.0940032654    -0.0338796493
    4      C       2.0986077784     1.4903235561    -0.0565350579
    5      N       0.9662531429     2.1561326184    -0.0504560032
    6      C      -0.1879601253     1.4957292166    -0.0481473371
    7      C      -1.3879814955     2.3162498096     0.0762712476
    8      C      -2.4691873796     1.9666075742     0.7582907121
    9      C      -0.2173936142     0.0906887799    -0.1311358924
   10      C      -1.4773062258    -0.6628965736    -0.3619547537
   11      O      -2.3037418136    -0.3976781082    -1.1961478026
   12      O      -1.5594158813    -1.7305845008     0.4492691015
   13      C      -2.7053101444    -2.5518355708     0.2771928601
   14      C       0.9840095348    -0.6019320854    -0.1018237059
   15      H       4.7289094173    -2.2308997139     0.2385903031
   16      H       2.9350804231    -2.5590549310     0.3273992755
   17      H       4.3342565948     0.1350127521    -0.0789871965
   18      H       2.9940667719     2.0999974179    -0.0695259581
   19      H      -1.3084763181     3.2955878910    -0.3738324498
   20      H      -2.5435373101     1.0209529948     1.2700992006
   21      H      -3.3192736520     2.6211801387     0.8422147835
   22      H      -2.6282264605    -3.3416733348     1.0198687374
   23      H      -2.7233675099    -2.9707893674    -0.7310423771
   24      H      -3.6162081683    -1.9688107971     0.4285210797
   25      H       0.9709994467    -1.6795536955    -0.1618189361
 ----------------------------------------------------------------

    9    -630.9493361004      6.41e-06  Convergence criterion met
 Total energy in the final basis set =     -630.9493361004

                    Orbital Energies (a.u.)
 --------------------------------------------------------------

 Alpha MOs
 -- Occupied --
-19.1989 -19.1365 -14.3308 -10.3186 -10.2440 -10.2368 -10.2267 -10.2143
-10.2131 -10.2094 -10.2019 -10.1912 -10.1891 -10.1859  -1.1140  -1.0217
 -0.9582  -0.8363  -0.8176  -0.7811  -0.7428  -0.7299  -0.6610  -0.6526
 -0.5921  -0.5845  -0.5619  -0.5300  -0.5139  -0.5012  -0.4872  -0.4730
 -0.4700  -0.4423  -0.4354  -0.4296  -0.4130  -0.4107  -0.4023  -0.3959
 -0.3693  -0.3632  -0.3544  -0.3327  -0.3083  -0.2969  -0.2742  -0.2724
 -0.2560  -0.2273

          Ground-State Mulliken Net Atomic Charges

     Atom                 Charge (a.u.)
  ----------------------------------------
      1 C                    -0.348469
      2 C                    -0.115614
      3 C                     0.144821
      4 C                    -0.009970
      5 N                    -0.478702
      6 C                     0.249781
      7 C                    -0.074514
      8 C                    -0.327125
      9 C                     0.058506
     10 C                     0.505121
     11 O                    -0.461362
     12 O                    -0.441358
     13 C                    -0.220556
     14 C                    -0.171823
     15 H                     0.151132
     16 H                     0.147010
     17 H                     0.135970
     18 H                     0.144011
     19 H                     0.151123
     20 H                     0.148501
     21 H                     0.152166
     22 H                     0.166482
     23 H                     0.170340
     24 H                     0.170713
     25 H                     0.153814
  ----------------------------------------
  Sum of atomic charges =     0.000000

                    Cartesian Multipole Moments
 -----------------------------------------------------------------
    Charge (ESU x 10^10)
                 0.0000
    Dipole Moment (Debye)
         X       0.6204      Y      -2.5034      Z       1.2513
       Tot       2.8667
    Quadrupole Moments (Debye-Ang)
        XX     -71.0036     XY       1.1441     YY     -75.2701
        XZ      -5.5392     YZ      -0.7460     ZZ     -85.2739

 Total job time:  41.29s(wall), 40.89s(cpu)
        *  Thank you very much for using Q-Chem.  Have a nice day.  *
