 Q-Chem 5.4, Q-Chem, Inc., Pleasanton, CA (2021)
 Q-Chem 5.4.2 for Intel X86 EM64T Linux

User input:
--------------------------------------------------------------
$molecule
0 1
C           -4.73347943510000       -1.02077061310000       -0.05554932070000
C           -3.83275192970000       -0.06708915000000       -0.26112273530000
C           -2.40706676490000       -0.14050908230000        0.03031009680000
C           -1.81790393270000       -1.21454359000000        0.70030497300000
C           -0.46289345630000       -1.22269052600000        0.93970572600000
C            0.36168604280000       -0.18166836250000        0.50726585070000
C            1.79278132570000       -0.30444260700000        0.79275574720000
C            2.79092988320000       -0.08062241150000       -0.04339229330000
F            2.71116371160000        0.29385384020000       -1.31470153220000
F            4.07510585450000       -0.23786345900000        0.28112713460000
C           -0.21439728680000        0.92076767260000       -0.13433831060000
C            0.58454841860000        2.11735874320000       -0.54992657840000
C           -1.58354326930000        0.91447125590000       -0.35722768600000
H           -5.76958208780000       -0.87509337460000       -0.30866949860000
H           -4.48283462900000       -1.97985905550000        0.36402373250000
H           -4.15393135370000        0.87059834360000       -0.69865050550000
H           -2.42157836410000       -2.03960366560000        1.04331268110000
H           -0.01631294060000       -2.05907000610000        1.45819072960000
H            2.06834783770000       -0.67679635320000        1.76925035420000
H            1.42140115120000        2.28650951490000        0.12440284780000
H           -0.04403330950000        3.00488179630000       -0.55732060270000
H            0.98253903550000        1.97975092890000       -1.55472023270000
H           -2.02834104260000        1.76689748400000       -0.85246206800000
$end

$rem
BASIS = 6-31G*
GUI = 2
METHOD = B3LYP
PRINT_ORBITALS false
MOLDEN_FORMAT false
$end
--------------------------------------------------------------

             Standard Nuclear Orientation (Angstroms)
    I     Atom           X                Y                Z
 ----------------------------------------------------------------
    1      C       4.6984388435    -0.4213269298     0.4222054476
    2      C       3.7039776800     0.4213739110     0.1692606155
    3      C       2.2991075961     0.0792943162    -0.0102480731
    4      C       1.8331971062    -1.2358462185    -0.0639964710
    5      C       0.4910879029    -1.4891828310    -0.2313163184
    6      C      -0.4411366767    -0.4538314345    -0.3296400691
    7      C      -1.8466613715    -0.8365705816    -0.4800487870
    8      C      -2.8799186657    -0.3356217250     0.1733799968
    9      F      -2.8650289343     0.6102511232     1.1050049949
   10      F      -4.1350322620    -0.7529693719     0.0011698538
   11      C       0.0095825944     0.8711223218    -0.3140581538
   12      C      -0.9120824965     2.0363710239    -0.5027032205
   13      C       1.3675354210     1.1052952659    -0.1546618141
   14      H       5.7094312217    -0.0724050011     0.5444686391
   15      H       4.5525707202    -1.4830624274     0.5229786085
   16      H       3.9217373754     1.4799268531     0.0925078208
   17      H       2.5224452591    -2.0613650765     0.0151036811
   18      H       0.1403543190    -2.5105687446    -0.2706642472
   19      H      -2.0629678383    -1.6576216740    -1.1487883091
   20      H      -1.7466721668     1.7782474241    -1.1511528671
   21      H      -0.3742047944     2.8739053906    -0.9409846283
   22      H      -1.3163321601     2.3616474420     0.4552739143
   23      H       1.7154212295     2.1292973414    -0.1433551686
 ----------------------------------------------------------------

    9    -624.8290521824      6.17e-06  Convergence criterion met
 Total energy in the final basis set =     -624.8290521824

                    Orbital Energies (a.u.)
 --------------------------------------------------------------

 Alpha MOs
 -- Occupied --
-24.7408 -24.7328 -10.3554 -10.2013 -10.2009 -10.1964 -10.1939 -10.1898
-10.1884 -10.1852 -10.1838 -10.1796 -10.1776  -1.2828  -1.2221  -0.8720
 -0.8170  -0.7815  -0.7682  -0.7254  -0.6889  -0.6439  -0.6110  -0.6059
 -0.5709  -0.5509  -0.5300  -0.5176  -0.4880  -0.4827  -0.4536  -0.4408
 -0.4378  -0.4337  -0.4207  -0.4199  -0.4100  -0.4087  -0.3882  -0.3692
 -0.3657  -0.3430  -0.3381  -0.3069  -0.2645  -0.2463  -0.2137

          Ground-State Mulliken Net Atomic Charges

     Atom                 Charge (a.u.)
  ----------------------------------------
      1 C                    -0.353498
      2 C                    -0.113391
      3 C                     0.192104
      4 C                    -0.188588
      5 C                    -0.177285
      6 C                     0.116403
      7 C                    -0.344512
      8 C                     0.566415
      9 F                    -0.233938
     10 F                    -0.249025
     11 C                     0.145663
     12 C                    -0.536146
     13 C                    -0.268198
     14 H                     0.144284
     15 H                     0.142608
     16 H                     0.127164
     17 H                     0.126459
     18 H                     0.128068
     19 H                     0.168621
     20 H                     0.157061
     21 H                     0.154273
     22 H                     0.173806
     23 H                     0.121653
  ----------------------------------------
  Sum of atomic charges =     0.000000

                    Cartesian Multipole Moments
 -----------------------------------------------------------------
    Charge (ESU x 10^10)
                 0.0000
    Dipole Moment (Debye)
         X       0.6960      Y      -0.1440      Z      -0.4853
       Tot       0.8606
    Quadrupole Moments (Debye-Ang)
        XX     -74.3227     XY       0.3819     YY     -67.5777
        XZ       2.0812     YZ       0.0734     ZZ     -76.7656

 Total job time:  48.16s(wall), 46.52s(cpu)
        *  Thank you very much for using Q-Chem.  Have a nice day.  *
