 Q-Chem 5.2, Q-Chem, Inc., Pleasanton, CA (2019)
 Q-Chem 5.2.1 for Intel X86 EM64T Linux

User input:
--------------------------------------------------------------
$molecule
0 1
C        -4.27113409060000    0.90851891310000    0.00326447640000
N        -3.34463834110000   -0.19481377550000   -0.04396696430000
C        -1.99589527580000    0.03229726620000   -0.01962741780000
C        -1.46959168810000    1.33423261970000    0.00044311060000
C        -0.11160284120000    1.55146991440000    0.00758562910000
C         0.80323314490000    0.49541213130000   -0.00208618200000
C         2.21898829230000    0.80160030930000    0.00839806690000
C         3.24850044140000   -0.03346145600000    0.00499402850000
F         3.22960103780000   -1.36546588440000   -0.00881024140000
F         4.52193064780000    0.37604556060000    0.01588682410000
C         0.28329405730000   -0.80109477610000   -0.01951144710000
C        -1.07371472700000   -1.02734649610000   -0.02719450640000
C        -3.85817974130000   -1.53826985000000    0.06032832390000
H        -4.10056901010000    1.59244719060000   -0.83236065820000
H        -4.18480543070000    1.47179063180000    0.93937570330000
H        -5.28830875950000    0.53227890140000   -0.07508369600000
H        -2.12488230650000    2.18932388360000    0.01442124200000
H         0.25565982670000    2.56788266030000    0.02407138770000
H         2.48435852040000    1.84934681780000    0.02072267120000
H         0.94681184240000   -1.65050027020000   -0.02670891830000
H        -1.41797669440000   -2.04800466210000   -0.04190793700000
H        -4.94491405120000   -1.51187736390000    0.07823051170000
H        -3.51353690240000   -2.02950447230000    0.97631626290000
H        -3.54852465920000   -2.14282282880000   -0.79721069770000
$end

$rem
BASIS = 6-31G*
GUI = 2
METHOD = B3LYP
PRINT_ORBITALS false
MOLDEN_FORMAT false
--------------------------------------------------------------

             Standard Nuclear Orientation (Angstroms)
    I     Atom           X                Y                Z
 ----------------------------------------------------------------
    1      C       4.0923337430    -0.9328970596    -0.0002358408
    2      N       3.1749086733     0.1779882432    -0.0474935363
    3      C       1.8243601056    -0.0380147991    -0.0221766064
    4      C       1.2873854568    -1.3355686348    -0.0010525158
    5      C      -0.0723383535    -1.5416317007     0.0070677598
    6      C      -0.9784687639    -0.4780949321    -0.0026114910
    7      C      -2.3966859491    -0.7726291782     0.0089362652
    8      C      -3.4193011932     0.0708651728     0.0057196209
    9      F      -3.3894623360     1.4026614645    -0.0088345055
   10      F      -4.6960472798    -0.3281541205     0.0176433006
   11      C      -0.4479013378     0.8140844108    -0.0210832934
   12      C       0.9109161966     1.0291693557    -0.0297484848
   13      C       3.6995419484     1.5172345493     0.0557332012
   14      H       3.9156212860    -1.6158586306    -0.8353740934
   15      H       4.0019732963    -1.4949262955     0.9362416141
   16      H       5.1125166555    -0.5650741899    -0.0794346483
   17      H       1.9356339731    -2.1960098269     0.0129855910
   18      H      -0.4479328147    -2.5549819336     0.0243484871
   19      H      -2.6706516383    -1.8181519700     0.0220088654
   20      H      -1.1044191654     1.6689113761    -0.0283323980
   21      H       1.2635467628     2.0469549077    -0.0452447144
   22      H       4.7860337669     1.4819196126     0.0729638590
   23      H       3.3595311871     2.0117882178     0.9716662752
   24      H       3.3943214019     2.1238418286    -0.8019449286
 ----------------------------------------------------------------

    9    -642.0836513819      5.79e-06  Convergence criterion met
 Total energy in the final basis set =     -642.0836513819

                    Orbital Energies (a.u.)
 --------------------------------------------------------------

 Alpha MOs
 -- Occupied --
-24.7293 -24.7185 -14.3527 -10.3382 -10.2208 -10.2186 -10.2184 -10.1895
-10.1839 -10.1799 -10.1771 -10.1742 -10.1741  -1.2680  -1.2079  -0.9552
 -0.8498  -0.7915  -0.7495  -0.7339  -0.7245  -0.6669  -0.6189  -0.6040
 -0.5772  -0.5562  -0.5321  -0.5100  -0.5027  -0.4824  -0.4705  -0.4517
 -0.4490  -0.4314  -0.4260  -0.4191  -0.4141  -0.4077  -0.4027  -0.3926
 -0.3831  -0.3694  -0.3607  -0.3289  -0.3079  -0.2459  -0.2452  -0.1769

          Ground-State Mulliken Net Atomic Charges

     Atom                 Charge (a.u.)
  ----------------------------------------
      1 C                    -0.312353
      2 N                    -0.472845
      3 C                     0.380704
      4 C                    -0.199076
      5 C                    -0.203964
      6 C                     0.195224
      7 C                    -0.297398
      8 C                     0.528380
      9 F                    -0.243107
     10 F                    -0.258358
     11 C                    -0.204179
     12 C                    -0.198157
     13 C                    -0.313052
     14 H                     0.161655
     15 H                     0.155147
     16 H                     0.155527
     17 H                     0.122108
     18 H                     0.121227
     19 H                     0.152179
     20 H                     0.133491
     21 H                     0.123230
     22 H                     0.155237
     23 H                     0.157718
     24 H                     0.160663
  ----------------------------------------
  Sum of atomic charges =     0.000000

                    Cartesian Multipole Moments
 -----------------------------------------------------------------
    Charge (ESU x 10^10)
                 0.0000
    Dipole Moment (Debye)
         X       3.7492      Y      -0.2829      Z       0.0889
       Tot       3.7610
    Quadrupole Moments (Debye-Ang)
        XX     -67.8870     XY       2.4574     YY     -69.1034
        XZ       0.2587     YZ       0.0100     ZZ     -77.4643

 Total job time:  30.49s(wall), 30.39s(cpu)
        *  Thank you very much for using Q-Chem.  Have a nice day.  *
