 Q-Chem 5.2, Q-Chem, Inc., Pleasanton, CA (2019)
 Q-Chem 5.2.1 for Intel X86 EM64T Linux

User input:
--------------------------------------------------------------
$molecule
0 1
C         3.76737877370000    0.21194963850000    0.12890640050000
C         2.75680353810000    0.98945816890000   -0.24995178010000
C         1.35857726500000    0.64815831510000   -0.17259637890000
S         0.20549444370000    1.96618279180000   -0.08938855670000
C        -1.11869604720000    0.84674954530000    0.01352791500000
C        -2.46391748940000    1.16957072260000    0.10644042070000
C        -3.38322906700000    0.14245316090000    0.14530678030000
C        -2.96547727580000   -1.18625687320000    0.07536425400000
C        -1.62952932690000   -1.50626452470000   -0.01427465070000
C        -0.67290604930000   -0.48814831120000   -0.02616160870000
C         0.75619906820000   -0.58348525020000   -0.12509898250000
C         1.48143447970000   -1.84183318190000   -0.23626647440000
C         1.25252368290000   -2.91469531950000    0.50858921190000
H         4.78750795750000    0.54104038690000    0.03123575290000
H         3.61181954580000   -0.75859415710000    0.56646290500000
H         2.95800385010000    1.98492035720000   -0.62652998480000
H        -2.77458275540000    2.20239790870000    0.14048010610000
H        -4.43621766260000    0.36898710570000    0.21821921420000
H        -3.70416061050000   -1.97400098060000    0.08754243390000
H        -1.31439482510000   -2.53560152270000   -0.08825061400000
H         2.26033225120000   -1.85817961220000   -0.99021318390000
H         0.52340137940000   -2.91426053220000    1.30141592600000
H         1.81026599900000   -3.82549317010000    0.37033712620000
$end

$rem
BASIS = 6-31G*
GUI = 2
METHOD = B3LYP
PRINT_ORBITALS false
MOLDEN_FORMAT false
--------------------------------------------------------------

             Standard Nuclear Orientation (Angstroms)
    I     Atom           X                Y                Z
 ----------------------------------------------------------------
    1      C       3.7453094438     0.2377341972     0.2213605373
    2      C       2.7442210910     1.0412605197    -0.1271834364
    3      C       1.3442003053     0.6994289161    -0.1027066405
    4      S       0.1912998034     2.0122589734     0.0422406909
    5      C      -1.1362722310     0.8921003008     0.0425432366
    6      C      -2.4827735054     1.2117766297     0.1274451653
    7      C      -3.4040502389     0.1868444136     0.0786805384
    8      C      -2.9866086800    -1.1355125379    -0.0696215474
    9      C      -1.6494461836    -1.4525716847    -0.1512726835
   10      C      -0.6914647013    -0.4384997386    -0.0753807405
   11      C       0.7393277266    -0.5310188480    -0.1494915723
   12      C       1.4651676891    -1.7812921148    -0.3276410543
   13      C       1.2187243170    -2.9002440459     0.3397835128
   14      H       4.7677484017     0.5697539356     0.1676455633
   15      H       3.5790124897    -0.7590870196     0.5905521029
   16      H       2.9548554615     2.0588059260    -0.4329156498
   17      H      -2.7927591481     2.2409656066     0.2227476061
   18      H      -4.4580787236     0.4109614427     0.1435985199
   19      H      -3.7264080338    -1.9203278241    -0.1253354442
   20      H      -1.3341198321    -2.4756605235    -0.2860887539
   21      H       2.2602459709    -1.7500846269    -1.0640249239
   22      H       0.4725439424    -2.9500247642     1.1149805521
   23      H       1.7781524213    -3.8014817695     0.1538974814
 ----------------------------------------------------------------

    9    -861.4478028929      3.36e-06  Convergence criterion met
 Total energy in the final basis set =     -861.4478028929

                    Orbital Energies (a.u.)
 --------------------------------------------------------------

 Alpha MOs
 -- Occupied --
-88.9009 -10.2219 -10.2171 -10.2014 -10.1980 -10.1962 -10.1949 -10.1931
-10.1882 -10.1868 -10.1864 -10.1852 -10.1821  -7.9628  -5.9269  -5.9235
 -5.9193  -0.8988  -0.8395  -0.7986  -0.7849  -0.7539  -0.7195  -0.7041
 -0.6332  -0.6099  -0.5871  -0.5676  -0.5385  -0.4938  -0.4877  -0.4696
 -0.4522  -0.4485  -0.4282  -0.4260  -0.4030  -0.3999  -0.3833  -0.3680
 -0.3606  -0.3459  -0.3359  -0.3327  -0.2957  -0.2875  -0.2620  -0.2268
 -0.2035

          Ground-State Mulliken Net Atomic Charges

     Atom                 Charge (a.u.)
  ----------------------------------------
      1 C                    -0.344915
      2 C                    -0.097802
      3 C                    -0.204049
      4 S                     0.218200
      5 C                    -0.140480
      6 C                    -0.179520
      7 C                    -0.115821
      8 C                    -0.145941
      9 C                    -0.175913
     10 C                     0.118792
     11 C                     0.112996
     12 C                    -0.134574
     13 C                    -0.345375
     14 H                     0.147433
     15 H                     0.164531
     16 H                     0.141539
     17 H                     0.138780
     18 H                     0.129466
     19 H                     0.128457
     20 H                     0.137014
     21 H                     0.150624
     22 H                     0.152635
     23 H                     0.143923
  ----------------------------------------
  Sum of atomic charges =     0.000000

                    Cartesian Multipole Moments
 -----------------------------------------------------------------
    Charge (ESU x 10^10)
                -0.0000
    Dipole Moment (Debye)
         X       0.1943      Y      -0.6186      Z      -0.1065
       Tot       0.6571
    Quadrupole Moments (Debye-Ang)
        XX     -72.1862     XY      -0.6227     YY     -77.0047
        XZ      -1.3920     YZ      -0.5331     ZZ     -86.4295

 Total job time:  37.03s(wall), 36.81s(cpu)
        *  Thank you very much for using Q-Chem.  Have a nice day.  *
