 Q-Chem 5.2, Q-Chem, Inc., Pleasanton, CA (2019)
 Q-Chem 5.2.1 for Intel X86 EM64T Linux

User input:
--------------------------------------------------------------
$molecule
0 1
C        -3.87783127330000    1.15038765440000   -0.42654150600000
C        -3.27824536410000    0.05360796450000    0.02362723940000
C        -1.84721584750000   -0.19596510500000    0.09696432470000
C        -1.39197046040000   -1.44352212380000    0.53364357200000
C        -0.04862003290000   -1.73261784910000    0.56647345260000
C         0.91614488520000   -0.78865653470000    0.19562665290000
N         2.24209348780000   -1.16742808130000    0.19568098920000
C         3.19566754620000   -0.70129358920000   -0.78592341270000
C         0.47919860660000    0.50540401990000   -0.14928934280000
C         1.37499504550000    1.64859297490000   -0.34373020190000
C         2.39183727260000    1.94916524780000    0.45238963250000
C        -0.88560941930000    0.75491202860000   -0.23138718400000
H        -4.95095127260000    1.23568523320000   -0.44122374980000
H        -3.33402836610000    2.00206049840000   -0.79750744330000
H        -3.89239803990000   -0.76721580860000    0.37603709990000
H        -2.10703759280000   -2.20072366230000    0.82320645200000
H         0.28061392730000   -2.71677506700000    0.87433546720000
H         2.37109382020000   -2.13126420050000    0.46671308290000
H         2.68551430960000   -0.25171248210000   -1.63964521920000
H         3.79909289370000   -1.53672570890000   -1.14081575970000
H         3.86358747000000    0.05289262780000   -0.35884689480000
H         1.09966418940000    2.32661778180000   -1.14350470590000
H         2.65217408800000    1.32756327130000    1.29255280270000
H         2.98470764480000    2.83625036960000    0.30529472120000
H        -1.19749811750000    1.74659199690000   -0.52386246470000
$end

$rem
BASIS = 6-31G*
GUI = 2
METHOD = B3LYP
PRINT_ORBITALS false
MOLDEN_FORMAT false
--------------------------------------------------------------

             Standard Nuclear Orientation (Angstroms)
    I     Atom           X                Y                Z
 ----------------------------------------------------------------
    1      C       3.9465420043    -1.0138841228    -0.3112624042
    2      C       3.3014065725     0.1109455880    -0.0220578982
    3      C       1.8611926072     0.3045771251     0.0395950382
    4      C       1.3529674295     1.5826449373     0.2897659378
    5      C      -0.0020157735     1.8130156885     0.3037067800
    6      C      -0.9256314575     0.7812557149     0.0993368109
    7      N      -2.2678470500     1.0959189598     0.0669033459
    8      C      -3.2100803082     0.4429303597    -0.8139680561
    9      C      -0.4323977575    -0.5294992279    -0.0527283415
   10      C      -1.2756384802    -1.7278662536    -0.0537529994
   11      C      -2.2676152811    -1.9482443764     0.7980298991
   12      C       0.9415651259    -0.7273672353    -0.1217898799
   13      H       5.0222356976    -1.0523658911    -0.3331715311
   14      H       3.4390450123    -1.9357355683    -0.5378030789
   15      H       3.8804009300     1.0026481313     0.1895076796
   16      H       2.0350014426     2.4064342228     0.4470003272
   17      H      -0.3735166855     2.8169753447     0.4643041999
   18      H      -2.4388340961     2.0831333580     0.1903971034
   19      H      -2.6895651273    -0.1087174231    -1.5988050390
   20      H      -3.8563671425     1.1864072983    -1.2804151851
   21      H      -3.8366005228    -0.2661280942    -0.2644075442
   22      H      -0.9782685390    -2.5072802291    -0.7460310860
   23      H      -2.5468697963    -1.2176820562     1.5385257055
   24      H      -2.8197792162    -2.8729963357     0.7990333587
   25      H       1.2962793048    -1.7371746604    -0.2657076517
 ----------------------------------------------------------------

    8    -481.6950739360      9.28e-06  Convergence criterion met
 Total energy in the final basis set =     -481.6950739360

                    Orbital Energies (a.u.)
 --------------------------------------------------------------

 Alpha MOs
 -- Occupied --
-14.3441 -10.2228 -10.2099 -10.1844 -10.1838 -10.1798 -10.1785 -10.1780
-10.1769 -10.1768 -10.1709 -10.1654  -0.9369  -0.8491  -0.7924  -0.7723
 -0.7247  -0.7220  -0.6715  -0.6217  -0.6085  -0.5713  -0.5373  -0.5229
 -0.4848  -0.4797  -0.4539  -0.4386  -0.4356  -0.4249  -0.4227  -0.4012
 -0.3915  -0.3813  -0.3675  -0.3591  -0.3426  -0.3282  -0.3117  -0.2790
 -0.2519  -0.2262  -0.1824

          Ground-State Mulliken Net Atomic Charges

     Atom                 Charge (a.u.)
  ----------------------------------------
      1 C                    -0.360889
      2 C                    -0.115990
      3 C                     0.185141
      4 C                    -0.202638
      5 C                    -0.192059
      6 C                     0.288500
      7 N                    -0.643454
      8 C                    -0.300248
      9 C                     0.133326
     10 C                    -0.152383
     11 C                    -0.333199
     12 C                    -0.266573
     13 H                     0.136451
     14 H                     0.135801
     15 H                     0.119257
     16 H                     0.123589
     17 H                     0.112545
     18 H                     0.316819
     19 H                     0.164968
     20 H                     0.143269
     21 H                     0.160727
     22 H                     0.130839
     23 H                     0.155573
     24 H                     0.137068
     25 H                     0.123562
  ----------------------------------------
  Sum of atomic charges =     0.000000

                    Cartesian Multipole Moments
 -----------------------------------------------------------------
    Charge (ESU x 10^10)
                 0.0000
    Dipole Moment (Debye)
         X      -1.8730      Y       1.0874      Z      -0.6403
       Tot       2.2584
    Quadrupole Moments (Debye-Ang)
        XX     -65.9277     XY      -1.9841     YY     -63.9761
        XZ       1.3862     YZ       1.9345     ZZ     -74.8727

 Total job time:  27.91s(wall), 27.81s(cpu)
        *  Thank you very much for using Q-Chem.  Have a nice day.  *
