 Q-Chem 5.2, Q-Chem, Inc., Pleasanton, CA (2019)
 Q-Chem 5.2.1 for Intel X86 EM64T Linux

User input:
--------------------------------------------------------------
$molecule
0 1
C        -3.80384486720000    0.99837469730000   -0.06314860020000
C        -2.93150174640000   -0.00216863610000   -0.06376958440000
C        -1.47957316870000    0.11234282860000   -0.01061581240000
C        -0.78821473970000    1.32454467060000    0.03942282700000
C         0.58961047520000    1.29967924130000    0.10172127090000
C         1.27158201340000    0.08251540930000    0.10406155370000
C         2.72650648450000    0.01977703240000    0.17414139920000
C         3.54815321570000    0.95003590500000   -0.29571054840000
C         0.48838162380000   -1.08542063150000    0.04254679280000
C         1.10298208980000   -2.45181794660000    0.01457976460000
N        -0.82846836320000   -1.05174311540000   -0.01062550820000
H        -4.86398902690000    0.81580718020000   -0.10549885580000
H        -3.50666567380000    2.03264596040000   -0.02069463200000
H        -3.27635582590000   -1.02649533230000   -0.10586921680000
H        -1.31709161250000    2.26407967430000    0.03953260770000
H         1.14555007090000    2.22383060010000    0.16990056780000
H         3.13828878030000   -0.86846724100000    0.63444818790000
H         3.19032336500000    1.83524212640000   -0.79454737690000
H         4.61711306580000    0.85075480960000   -0.21521307760000
H         1.81729731140000   -2.53666350110000   -0.80232352440000
H         0.31602075490000   -3.18876300580000   -0.11657334600000
H         1.62388855250000   -2.65658684650000    0.94934589080000
$end

$rem
BASIS = 6-31G*
GUI = 2
METHOD = B3LYP
PRINT_ORBITALS false
MOLDEN_FORMAT false
--------------------------------------------------------------

             Standard Nuclear Orientation (Angstroms)
    I     Atom           X                Y                Z
 ----------------------------------------------------------------
    1      C       3.9055149023    -0.5983326701    -0.0415764423
    2      C       2.9338336788     0.3057022623    -0.0666026080
    3      C       1.5016416479     0.0422246116    -0.0079484691
    4      C       0.9400724336    -1.2335970737     0.0747116388
    5      C      -0.4329241036    -1.3505564546     0.1387641211
    6      C      -1.2378008964    -0.2112729442     0.1107483906
    7      C      -2.6914251756    -0.2983941784     0.1817332545
    8      C      -3.4114080909    -1.3209470831    -0.2624017839
    9      C      -0.5802727511     1.0297919406     0.0176022619
   10      C      -1.3336375641     2.3236689482    -0.0446974809
   11      N       0.7329872406     1.1318853153    -0.0369916390
   12      H       4.9409587412    -0.3076576853    -0.0905069164
   13      H       3.7174865112    -1.6564498093     0.0281967759
   14      H       3.1703123771     1.3588997085    -0.1358475385
   15      H       1.5638053399    -2.1127102994     0.0982484155
   16      H      -0.8897877013    -2.3254323242     0.2318537365
   17      H      -3.1938011692     0.5538570049     0.6195815954
   18      H      -2.9629712628    -2.1767894265    -0.7387511644
   19      H      -4.4849723389    -1.3313238570    -0.1826279293
   20      H      -2.0521268925     2.3125229324    -0.8622700091
   21      H      -0.6274734702     3.1348092362    -0.1962923585
   22      H      -1.8739053038     2.4973531611     0.8853595709
 ----------------------------------------------------------------

    9    -442.4028024429      2.39e-06  Convergence criterion met
 Total energy in the final basis set =     -442.4028024429

                    Orbital Energies (a.u.)
 --------------------------------------------------------------

 Alpha MOs
 -- Occupied --
-14.3163 -10.2224 -10.2210 -10.2001 -10.1972 -10.1951 -10.1907 -10.1857
-10.1853 -10.1820 -10.1748  -0.9465  -0.8260  -0.8048  -0.7678  -0.7450
 -0.6933  -0.6503  -0.6130  -0.5743  -0.5541  -0.5145  -0.4935  -0.4710
 -0.4382  -0.4315  -0.4305  -0.4242  -0.4076  -0.3878  -0.3850  -0.3742
 -0.3547  -0.3463  -0.3208  -0.2795  -0.2696  -0.2461  -0.2171

          Ground-State Mulliken Net Atomic Charges

     Atom                 Charge (a.u.)
  ----------------------------------------
      1 C                    -0.348140
      2 C                    -0.089694
      3 C                     0.302275
      4 C                    -0.176185
      5 C                    -0.151836
      6 C                     0.112522
      7 C                    -0.127803
      8 C                    -0.339928
      9 C                     0.255088
     10 C                    -0.522309
     11 N                    -0.545187
     12 H                     0.148173
     13 H                     0.141819
     14 H                     0.143436
     15 H                     0.131327
     16 H                     0.137261
     17 H                     0.136530
     18 H                     0.144718
     19 H                     0.146350
     20 H                     0.163399
     21 H                     0.177900
     22 H                     0.160284
  ----------------------------------------
  Sum of atomic charges =     0.000000

                    Cartesian Multipole Moments
 -----------------------------------------------------------------
    Charge (ESU x 10^10)
                 0.0000
    Dipole Moment (Debye)
         X      -0.9173      Y      -1.2926      Z       0.1175
       Tot       1.5893
    Quadrupole Moments (Debye-Ang)
        XX     -58.0458     XY      -2.4674     YY     -61.2793
        XZ      -0.3411     YZ       0.7260     ZZ     -67.9135

 Total job time:  24.18s(wall), 24.09s(cpu)
        *  Thank you very much for using Q-Chem.  Have a nice day.  *
