 Q-Chem 5.2, Q-Chem, Inc., Pleasanton, CA (2019)
 Q-Chem 5.2.1 for Intel X86 EM64T Linux

User input:
--------------------------------------------------------------
$molecule
0 1
C         4.59512690390000    0.75018573320000   -0.04959647900000
C         3.81841420300000   -0.32403666220000    0.03323122390000
C         2.36250348400000   -0.34768688740000    0.01813584790000
C         1.70472323670000   -1.57959835730000   -0.02519914380000
C         0.32955461280000   -1.65286852430000   -0.04693643530000
C        -0.45212044670000   -0.49475809630000   -0.01949121470000
C        -1.89676969630000   -0.64150732880000   -0.04195761390000
C        -2.82470442270000    0.30383142080000   -0.00129942420000
F        -2.65444294620000    1.61884875450000    0.07051582540000
F        -4.13115057140000    0.04110739220000   -0.02776112190000
C         0.20160657230000    0.73928999710000    0.02996742360000
C         1.57793215650000    0.80741718890000    0.04763086270000
H         5.66817484810000    0.66613582670000   -0.03349494870000
H         4.20333666460000    1.74854691580000   -0.14141968670000
H         4.28190498060000   -1.30035628020000    0.11070306440000
H         2.28713064990000   -2.48993638320000   -0.04606011930000
H        -0.15436491180000   -2.61829182890000   -0.08354463720000
H        -2.27712493040000   -1.65167430830000   -0.09735933570000
H        -0.36734646590000    1.65430434270000    0.05512926180000
H         2.05095878550000    1.77587771320000    0.09170583160000
$end

$rem
BASIS = 6-31G*
GUI = 2
METHOD = B3LYP
PRINT_ORBITALS false
MOLDEN_FORMAT false
--------------------------------------------------------------

             Standard Nuclear Orientation (Angstroms)
    I     Atom           X                Y                Z
 ----------------------------------------------------------------
    1      C       4.4139369588    -1.0270789365     0.0699237165
    2      C       3.7003471090     0.0878359219    -0.0389394441
    3      C       2.2482279105     0.1956783189    -0.0254088928
    4      C       1.6625442440     1.4641216057    -0.0118105159
    5      C       0.2938963108     1.6169935218     0.0072363623
    6      C      -0.5532212601     0.5055167937     0.0067822883
    7      C      -1.9870005420     0.7357452586     0.0247643718
    8      C      -2.9678854240    -0.1552608959     0.0059447742
    9      F      -2.8737181167    -1.4792378249    -0.0344853911
   10      F      -4.2570067974     0.1828495652     0.0252599737
   11      C       0.0282886226    -0.7649709575    -0.0128900133
   12      C       1.3983906851    -0.9126797468    -0.0279856064
   13      H       5.4900336569    -1.0053965753     0.0525654823
   14      H       3.9653417931    -1.9987452840     0.1851757466
   15      H       4.2192636422     1.0337136883    -0.1392712239
   16      H       2.2964457692     2.3396315204    -0.0121878237
   17      H      -0.1335732603     2.6092901661     0.0205615042
   18      H      -2.3084871847     1.7671785298     0.0558855360
   19      H      -0.5924532396    -1.6460254484    -0.0166920040
   20      H       1.8148053619    -1.9075575629    -0.0487107046
 ----------------------------------------------------------------

    9    -585.5165797745      4.37e-06  Convergence criterion met
 Total energy in the final basis set =     -585.5165797745

                    Orbital Energies (a.u.)
 --------------------------------------------------------------

 Alpha MOs
 -- Occupied --
-24.7452 -24.7345 -10.3573 -10.2066 -10.2038 -10.1959 -10.1910 -10.1910
-10.1895 -10.1891 -10.1885 -10.1805  -1.2858  -1.2248  -0.8712  -0.8182
 -0.7778  -0.7525  -0.7242  -0.6489  -0.6222  -0.6121  -0.5749  -0.5627
 -0.5318  -0.5194  -0.5029  -0.4675  -0.4590  -0.4451  -0.4414  -0.4339
 -0.4285  -0.4145  -0.4021  -0.3848  -0.3768  -0.3503  -0.3389  -0.3235
 -0.2683  -0.2565  -0.2097

          Ground-State Mulliken Net Atomic Charges

     Atom                 Charge (a.u.)
  ----------------------------------------
      1 C                    -0.352476
      2 C                    -0.113955
      3 C                     0.180078
      4 C                    -0.200594
      5 C                    -0.192724
      6 C                     0.196416
      7 C                    -0.298123
      8 C                     0.543981
      9 F                    -0.234417
     10 F                    -0.248736
     11 C                    -0.194747
     12 C                    -0.186143
     13 H                     0.144776
     14 H                     0.143270
     15 H                     0.126979
     16 H                     0.129616
     17 H                     0.128308
     18 H                     0.159866
     19 H                     0.139263
     20 H                     0.129363
  ----------------------------------------
  Sum of atomic charges =     0.000000

                    Cartesian Multipole Moments
 -----------------------------------------------------------------
    Charge (ESU x 10^10)
                 0.0000
    Dipole Moment (Debye)
         X       0.7811      Y       0.6696      Z       0.0110
       Tot       1.0288
    Quadrupole Moments (Debye-Ang)
        XX     -66.8856     XY      -1.3240     YY     -61.1973
        XZ      -0.1150     YZ      -0.1897     ZZ     -70.8423

 Total job time:  22.48s(wall), 22.39s(cpu)
        *  Thank you very much for using Q-Chem.  Have a nice day.  *
