 Q-Chem 5.2, Q-Chem, Inc., Pleasanton, CA (2019)
 Q-Chem 5.2.1 for Intel X86 EM64T Linux

User input:
--------------------------------------------------------------
$molecule
0 1
C        -3.92875547820000   -2.33782910130000    0.01172492460000
C        -4.09028722770000   -1.02199009660000    0.07515208530000
C        -3.04067599600000   -0.00945611070000    0.02806699390000
C        -3.40520191760000    1.33756214120000   -0.02464258100000
C        -2.44066573740000    2.32731752720000   -0.07386349180000
C        -1.09891151740000    2.00082857060000   -0.06981107200000
C        -0.69859246690000    0.66202759710000   -0.01401552640000
C         0.69026185530000    0.24245516610000   -0.00375620640000
C         1.76362907620000    1.04299090490000   -0.10586376350000
C         3.14364662420000    0.62321721680000   -0.09886241420000
C         3.62665010130000   -0.60911299370000    0.01543952310000
F         2.94514234150000   -1.74149388230000    0.15030794490000
F         4.92990352250000   -0.88653126780000    0.00952960060000
C        -1.68509514790000   -0.32358487230000    0.03681447250000
H        -4.77143519080000   -3.00656164200000    0.05119401410000
H        -2.96385196350000   -2.80487956060000   -0.08573630050000
H        -5.09343941690000   -0.62161977600000    0.16106666660000
H        -4.45199075410000    1.60613983660000   -0.02884162620000
H        -2.73926011500000    3.36491608650000   -0.11421732230000
H        -0.36322769880000    2.78884170150000   -0.10394907630000
H         0.83393331390000   -0.82466370070000    0.09058624820000
H         1.63396580110000    2.11035481620000   -0.20813769470000
H         3.89222223230000    1.39555458230000   -0.19794829380000
H        -1.37774305720000   -1.35714184000000    0.08793976360000
$end

$rem
BASIS = 6-31G*
GUI = 2
METHOD = B3LYP
PRINT_ORBITALS false
MOLDEN_FORMAT false
--------------------------------------------------------------

             Standard Nuclear Orientation (Angstroms)
    I     Atom           X                Y                Z
 ----------------------------------------------------------------
    1      C       3.6464267092    -2.6129316694     0.0911810830
    2      C       3.8959090549    -1.3144901792    -0.0243873061
    3      C       2.9166080144    -0.2327865908    -0.0208327133
    4      C       3.3707023937     1.0877867217    -0.0210294472
    5      C       2.4747556356     2.1411627539    -0.0141879263
    6      C       1.1141163018     1.9054736958    -0.0089803406
    7      C       0.6248613945     0.5953686755    -0.0122974493
    8      C      -0.7890177538     0.2697897777    -0.0097008635
    9      C      -1.8062563814     1.1439431665     0.0572471805
   10      C      -3.2113326585     0.8177018103     0.0631322407
   11      C      -3.7759318400    -0.3830608342    -0.0031389850
   12      F      -3.1719345004    -1.5630849477    -0.0906552688
   13      F      -5.0948655075    -0.5720110711     0.0101687025
   14      C       1.5430033964    -0.4554145005    -0.0208502066
   15      H       4.4423340246    -3.3377046082     0.0808927118
   16      H       2.6523406688    -3.0099482618     0.2045141513
   17      H       4.9236809767    -0.9860512753    -0.1234064296
   18      H       4.4331548892     1.2855248098    -0.0246102487
   19      H       2.8423038596     3.1571873528    -0.0145367362
   20      H       0.4329693253     2.7417746779    -0.0084879462
   21      H      -1.0039655425    -0.7882180901    -0.0616764569
   22      H      -1.6052699079     2.2034527323     0.1170983154
   23      H      -3.9064038277     1.6418446051     0.1291108910
   24      H       1.1669900033    -1.4672547374    -0.0314507525
 ----------------------------------------------------------------

    9    -662.9167176473      6.80e-06  Convergence criterion met
 Total energy in the final basis set =     -662.9167176473

                    Orbital Energies (a.u.)
 --------------------------------------------------------------

 Alpha MOs
 -- Occupied --
-24.7452 -24.7353 -10.3568 -10.2040 -10.1992 -10.1968 -10.1948 -10.1900
-10.1899 -10.1884 -10.1873 -10.1868 -10.1861 -10.1798  -1.2856  -1.2251
 -0.8680  -0.8268  -0.7957  -0.7725  -0.7311  -0.7198  -0.6521  -0.6300
 -0.6136  -0.5849  -0.5745  -0.5551  -0.5191  -0.5166  -0.4973  -0.4817
 -0.4639  -0.4520  -0.4436  -0.4416  -0.4321  -0.4208  -0.4140  -0.3994
 -0.3835  -0.3717  -0.3711  -0.3414  -0.3393  -0.3339  -0.3006  -0.2699
 -0.2274  -0.2045

          Ground-State Mulliken Net Atomic Charges

     Atom                 Charge (a.u.)
  ----------------------------------------
      1 C                    -0.350684
      2 C                    -0.115057
      3 C                     0.181140
      4 C                    -0.195649
      5 C                    -0.128882
      6 C                    -0.180490
      7 C                     0.189486
      8 C                    -0.191539
      9 C                    -0.122356
     10 C                    -0.243541
     11 C                     0.552301
     12 F                    -0.233966
     13 F                    -0.248106
     14 C                    -0.267221
     15 H                     0.144489
     16 H                     0.144078
     17 H                     0.126813
     18 H                     0.127288
     19 H                     0.129425
     20 H                     0.125981
     21 H                     0.136099
     22 H                     0.134307
     23 H                     0.158971
     24 H                     0.127114
  ----------------------------------------
  Sum of atomic charges =     0.000000

                    Cartesian Multipole Moments
 -----------------------------------------------------------------
    Charge (ESU x 10^10)
                -0.0000
    Dipole Moment (Debye)
         X       0.4808      Y       1.0564      Z       0.0524
       Tot       1.1619
    Quadrupole Moments (Debye-Ang)
        XX     -75.8362     XY      -3.0808     YY     -71.9069
        XZ      -0.4460     YZ       0.0160     ZZ     -83.6416

 Total job time:  33.87s(wall), 33.75s(cpu)
        *  Thank you very much for using Q-Chem.  Have a nice day.  *
