 Q-Chem 5.4, Q-Chem, Inc., Pleasanton, CA (2021)
 Q-Chem 5.4.2 for Intel X86 EM64T Linux

User input:
--------------------------------------------------------------
$molecule
0 1
C            2.09797717800000       -3.77071865640000       -0.70521578350000
C            1.12209530530000       -3.24944655550000        0.02415979620000
C            0.71356548040000       -1.84143131760000        0.00273751030000
C           -0.62743625210000       -1.56114757930000       -0.09908929870000
C           -1.12492188900000       -0.24727458480000       -0.20973717380000
C           -2.56620187080000       -0.04768044100000       -0.32617696190000
C           -3.26013246640000        0.95647499890000        0.18593973320000
F           -2.81163017530000        1.94605994220000        0.93827213610000
F           -4.57887547730000        1.07354960200000        0.04636438580000
C           -0.20879701760000        0.77978083900000       -0.23921902420000
F           -0.62508492240000        2.04487887980000       -0.45031318690000
C            1.17671334390000        0.56316639900000       -0.08975499310000
C            2.09010269650000        1.63838484260000       -0.07382111080000
C            3.42329920660000        1.41148053370000        0.11978277680000
C            3.88946777520000        0.10580218020000        0.32683900850000
C            3.02598878840000       -0.95550321920000        0.29930619640000
C            1.64955012580000       -0.76854461240000        0.06041660130000
H            2.32487336380000       -4.82284144170000       -0.67261356370000
H            2.68857162060000       -3.17363110330000       -1.37987820610000
H            0.51279484180000       -3.89452659040000        0.64537751770000
H           -1.33845960910000       -2.37442158120000       -0.11542727680000
H           -3.12799670500000       -0.80371233090000       -0.85364447470000
H            1.71043555620000        2.64053527500000       -0.20332728420000
H            4.11995288260000        2.23604913170000        0.13380085690000
H            4.94006022930000       -0.05824314700000        0.51593889110000
H            3.39224738530000       -1.95323398120000        0.48386262790000
$end

$rem
BASIS = 6-31G*
GUI = 2
METHOD = B3LYP
PRINT_ORBITALS false
MOLDEN_FORMAT false
$end
--------------------------------------------------------------

             Standard Nuclear Orientation (Angstroms)
    I     Atom           X                Y                Z
 ----------------------------------------------------------------
    1      C      -3.2226160858    -2.7617303149     0.4109186525
    2      C      -2.1057091101    -2.5776687035    -0.2780653094
    3      C      -1.2160437150    -1.4194993561    -0.1476747813
    4      C       0.1323839913    -1.6531536034    -0.0278343330
    5      C       1.0685672336    -0.6212989149     0.1839060637
    6      C       2.4808632673    -0.9673680473     0.3117344690
    7      C       3.5041483354    -0.2484943489    -0.1221314131
    8      F       3.4637824109     0.8890477977    -0.7935516736
    9      F       4.7717956082    -0.6284728882     0.0226358842
   10      C       0.5857617899     0.6629561675     0.2960871223
   11      F       1.4260291155     1.6715407331     0.6043685093
   12      C      -0.7798687346     0.9754209766     0.1338549186
   13      C      -1.2415205296     2.3067785016     0.2045193377
   14      C      -2.5609825754     2.5939658387    -0.0026624865
   15      C      -3.4625215560     1.5654825099    -0.3099585800
   16      C      -3.0426450735     0.2642996130    -0.3678375514
   17      C      -1.6985145760    -0.0790273492    -0.1187493058
   18      H      -3.8139453478    -3.6543658654     0.2967318886
   19      H      -3.5743646245    -2.0426399383     1.1317977838
   20      H      -1.7552796567    -3.3520748538    -0.9494676301
   21      H       0.5002379210    -2.6677942261    -0.0770648015
   22      H       2.7171401270    -1.9124466685     0.7769433217
   23      H      -0.5284209711     3.0904120471     0.4109944247
   24      H      -2.9114186932     3.6137139619     0.0497256438
   25      H      -4.4960035970     1.8082038460    -0.5084916093
   26      H      -3.7402253377    -0.5160269012    -0.6288843206
 ----------------------------------------------------------------

    9    -838.3836907362      4.66e-06  Convergence criterion met
 Total energy in the final basis set =     -838.3836907362

                    Orbital Energies (a.u.)
 --------------------------------------------------------------

 Alpha MOs
 -- Occupied --
-24.7383 -24.7334 -24.7115 -10.3573 -10.2728 -10.2114 -10.2046 -10.2042
-10.2035 -10.2016 -10.1972 -10.1965 -10.1920 -10.1914 -10.1909 -10.1891
-10.1852  -1.2835  -1.2250  -1.2206  -0.8897  -0.8447  -0.8160  -0.7881
 -0.7558  -0.7465  -0.7198  -0.6560  -0.6328  -0.6219  -0.6103  -0.5760
 -0.5667  -0.5449  -0.5423  -0.5219  -0.5150  -0.4837  -0.4803  -0.4680
 -0.4644  -0.4517  -0.4395  -0.4355  -0.4343  -0.4297  -0.4159  -0.4130
 -0.4021  -0.3881  -0.3831  -0.3718  -0.3448  -0.3405  -0.3364  -0.3030
 -0.2743  -0.2670  -0.2363  -0.2063

          Ground-State Mulliken Net Atomic Charges

     Atom                 Charge (a.u.)
  ----------------------------------------
      1 C                    -0.334100
      2 C                    -0.143217
      3 C                     0.104539
      4 C                    -0.262133
      5 C                     0.117033
      6 C                    -0.318756
      7 C                     0.567812
      8 F                    -0.228196
      9 F                    -0.247401
     10 C                     0.233900
     11 F                    -0.284080
     12 C                     0.058699
     13 C                    -0.182757
     14 C                    -0.131787
     15 C                    -0.132655
     16 C                    -0.203498
     17 C                     0.090303
     18 H                     0.145502
     19 H                     0.155983
     20 H                     0.140079
     21 H                     0.132088
     22 H                     0.168424
     23 H                     0.145618
     24 H                     0.132984
     25 H                     0.130847
     26 H                     0.144767
  ----------------------------------------
  Sum of atomic charges =     0.000000

                    Cartesian Multipole Moments
 -----------------------------------------------------------------
    Charge (ESU x 10^10)
                 0.0000
    Dipole Moment (Debye)
         X      -1.8221      Y      -1.2139      Z       0.0126
       Tot       2.1895
    Quadrupole Moments (Debye-Ang)
        XX     -91.4196     XY      -2.9693     YY     -85.5663
        XZ       0.9366     YZ       0.6843     ZZ     -96.2274

 Total job time:  97.80s(wall), 87.35s(cpu)
        *  Thank you very much for using Q-Chem.  Have a nice day.  *
