 Q-Chem 5.2, Q-Chem, Inc., Pleasanton, CA (2019)
 Q-Chem 5.2.1 for Intel X86 EM64T Linux

User input:
--------------------------------------------------------------
$molecule
0 1
C         4.00574506750000   -1.10897884320000   -0.06005550450000
C         3.39387731910000    0.05496239840000    0.12469332860000
C         1.96083113000000    0.30718303830000    0.05813709860000
C         1.46968431130000    1.55499309990000    0.44505531180000
C         0.11936177640000    1.82716607630000    0.40902323800000
C        -0.80105512160000    0.87193941830000   -0.02066023310000
C        -2.23296567500000    1.16993706830000   -0.02883997530000
C        -2.74942699800000    2.36342142550000   -0.28923469390000
C        -0.31415511370000   -0.37780651330000   -0.42813014270000
C        -1.25824256990000   -1.44267255460000   -0.94311964350000
C        -1.99859319310000   -2.02388804070000    0.15013845090000
N        -2.57377308250000   -2.47742366820000    1.02776446880000
C         1.04118146720000   -0.64520531540000   -0.38132457020000
H         5.07596929560000   -1.19564972890000    0.01538499920000
H         3.47671648400000   -2.01951016160000   -0.28375055620000
H         3.99014876960000    0.92720363340000    0.36428559220000
H         2.15885328410000    2.31296752530000    0.78926364480000
H        -0.24152566080000    2.78921372080000    0.74011907650000
H        -2.89194432640000    0.34248905180000    0.20213390860000
H        -2.13472814480000    3.20970098310000   -0.54790014180000
H        -3.81206968600000    2.53419594060000   -0.27022404470000
H        -0.69670706370000   -2.24070264780000   -1.43653423400000
H        -1.96766860610000   -1.01848127570000   -1.66000810110000
H         1.39473654980000   -1.61339505700000   -0.70389334090000
$end

$rem
BASIS = 6-31G*
GUI = 2
METHOD = B3LYP
PRINT_ORBITALS false
MOLDEN_FORMAT false
--------------------------------------------------------------

             Standard Nuclear Orientation (Angstroms)
    I     Atom           X                Y                Z
 ----------------------------------------------------------------
    1      C       4.0266720229    -0.9588583093    -0.0534181569
    2      C       3.3663288016     0.1814777257     0.1104538791
    3      C       1.9232309548     0.3700087588     0.0505287829
    4      C       1.3813870295     1.6039228439     0.4136018367
    5      C       0.0202988210     1.8166482930     0.3830378073
    6      C      -0.8610633026     0.8130484151    -0.0172635938
    7      C      -2.3045691607     1.0486782485    -0.0198635194
    8      C      -2.8742524456     2.2125205228    -0.3024847039
    9      C      -0.3235338612    -0.4234498808    -0.4008027733
   10      C      -1.2244360419    -1.5395201497    -0.8837286607
   11      C      -1.9305835774    -2.1271527974     0.2285605449
   12      N      -2.4788905879    -2.5850287573     1.1210082607
   13      C       1.0424381607    -0.6309453932    -0.3596181131
   14      H       5.1001886552    -0.9975006880     0.0147860733
   15      H       3.5359417418    -1.8962332804    -0.2521389530
   16      H       3.9260174918     1.0838730839     0.3253493306
   17      H       2.0396305239     2.3985772705     0.7348467952
   18      H      -0.3794443198     2.7694955044     0.6955877712
   19      H      -2.9252808374     0.1990143339     0.2352056178
   20      H      -2.2988040149     3.0784520205    -0.5852802634
   21      H      -3.9431259202     2.3376412020    -0.2782126390
   22      H      -0.6325810500    -2.3235722641    -1.3639390967
   23      H      -1.9569995484    -1.1627654454    -1.6038392108
   24      H       1.4351869876    -1.5900501017    -0.6634432293
 ----------------------------------------------------------------

    9    -518.5946845798      4.02e-06  Convergence criterion met
 Total energy in the final basis set =     -518.5946845798

                    Orbital Energies (a.u.)
 --------------------------------------------------------------

 Alpha MOs
 -- Occupied --
-14.3278 -10.2398 -10.2233 -10.2148 -10.2061 -10.2046 -10.1989 -10.1978
-10.1975 -10.1963 -10.1957 -10.1897 -10.1874  -0.9117  -0.8833  -0.8247
 -0.8043  -0.7747  -0.7360  -0.7210  -0.6493  -0.6107  -0.5851  -0.5668
 -0.5204  -0.5092  -0.5058  -0.4727  -0.4623  -0.4530  -0.4408  -0.4314
 -0.4162  -0.4024  -0.3848  -0.3658  -0.3605  -0.3550  -0.3513  -0.3275
 -0.3232  -0.3204  -0.2774  -0.2624  -0.2226

          Ground-State Mulliken Net Atomic Charges

     Atom                 Charge (a.u.)
  ----------------------------------------
      1 C                    -0.348872
      2 C                    -0.118129
      3 C                     0.190462
      4 C                    -0.195993
      5 C                    -0.182280
      6 C                     0.123093
      7 C                    -0.147142
      8 C                    -0.336678
      9 C                     0.114220
     10 C                    -0.444122
     11 C                     0.369951
     12 N                    -0.468688
     13 C                    -0.248185
     14 H                     0.148622
     15 H                     0.144687
     16 H                     0.130782
     17 H                     0.133002
     18 H                     0.136949
     19 H                     0.158500
     20 H                     0.147549
     21 H                     0.151018
     22 H                     0.203074
     23 H                     0.210307
     24 H                     0.127872
  ----------------------------------------
  Sum of atomic charges =     0.000000

                    Cartesian Multipole Moments
 -----------------------------------------------------------------
    Charge (ESU x 10^10)
                 0.0000
    Dipole Moment (Debye)
         X       1.9189      Y       1.9592      Z      -2.6230
       Tot       3.7948
    Quadrupole Moments (Debye-Ang)
        XX     -74.4843     XY      -7.6987     YY     -74.9554
        XZ       6.8870     YZ       8.5792     ZZ     -80.3037

 Total job time:  33.08s(wall), 32.97s(cpu)
        *  Thank you very much for using Q-Chem.  Have a nice day.  *
