 Q-Chem 5.2, Q-Chem, Inc., Pleasanton, CA (2019)
 Q-Chem 5.2.1 for Intel X86 EM64T Linux

User input:
--------------------------------------------------------------
$molecule
0 1
F        -5.15986046070000    0.26719413610000   -0.01725562910000
C        -3.88031636540000   -0.09550996720000    0.02143441270000
F        -3.81070723380000   -1.41122024460000    0.17942663030000
C        -2.88044310070000    0.76788108280000   -0.08661910280000
C        -1.45202260400000    0.50400358290000   -0.06078804920000
C        -0.57908080750000    1.58565590060000   -0.20577762760000
C         0.78755469960000    1.40795188790000   -0.19562825960000
C         1.32486347590000    0.13269933740000   -0.03290554370000
N         2.70875750810000   -0.05182475280000   -0.01555058620000
C         3.65174905190000    0.82096623400000    0.44346880130000
N         4.85539867210000    0.34544207280000    0.33777314830000
C         4.71897721140000   -0.88730083910000   -0.22300824720000
C         3.40209875820000   -1.15867276950000   -0.43991998030000
C         0.46379492200000   -0.95222619890000    0.11659893680000
C        -0.90328375510000   -0.77010793760000    0.10050786020000
H        -3.17774148650000    1.79928149380000   -0.21023069660000
H        -0.98200172060000    2.57902655900000   -0.33553893180000
H         1.44328844420000    2.25448693550000   -0.32866869410000
H         3.40939288910000    1.77155934320000    0.87383680390000
H         5.57560798870000   -1.49615093070000   -0.43009655800000
H         2.91775521930000   -2.00474090970000   -0.88076385180000
H         0.86855988090000   -1.94206500870000    0.26088524000000
H        -1.54243311990000   -1.62886111860000    0.22069900950000
$end

$rem
BASIS = 6-31G*
GUI = 2
METHOD = B3LYP
PRINT_ORBITALS false
MOLDEN_FORMAT false
--------------------------------------------------------------

             Standard Nuclear Orientation (Angstroms)
    I     Atom           X                Y                Z
 ----------------------------------------------------------------
    1      F       5.2433648082    -0.2128456315    -0.0161972154
    2      C       3.9609248330     0.1391547640     0.0253685075
    3      F       3.8806660728     1.4531705295     0.1921666060
    4      C       2.9680730101    -0.7316139942    -0.0880917958
    5      C       1.5375612748    -0.4795619103    -0.0599916904
    6      C       0.6733993376    -1.5672991290    -0.2118896292
    7      C      -0.6946339915    -1.4008076913    -0.2000681815
    8      C      -1.2422453679    -0.1310896719    -0.0286435552
    9      N      -2.6275892456     0.0420327597    -0.0095650079
   10      C      -3.5632522501    -0.8414563923     0.4439519343
   11      N      -4.7707783931    -0.3750602511     0.3418614815
   12      C      -4.6446322309     0.8624682636    -0.2107251599
   13      C      -3.3300968514     1.1460023104    -0.4262882957
   14      C      -0.3899810889     0.9597937130     0.1277952600
   15      C       0.9785289150     0.7889315351     0.1100026061
   16      H       3.2737117883    -1.7597099535    -0.2186927140
   17      H       1.0843448507    -2.5564658195    -0.3484237527
   18      H      -1.3435052757    -2.2517506704    -0.3385246392
   19      H      -3.3129849994    -1.7928942420     0.8678772908
   20      H      -5.5062785932     1.4656870159    -0.4134391811
   21      H      -2.8528414868     1.9989118581    -0.8616455064
   22      H      -0.8027358656     1.9453167915     0.2788311321
   23      H       1.6107115856     1.6520425962     0.2356975387
 ----------------------------------------------------------------

    9    -733.1336537962      5.74e-06  Convergence criterion met
 Total energy in the final basis set =     -733.1336537962

                    Orbital Energies (a.u.)
 --------------------------------------------------------------

 Alpha MOs
 -- Occupied --
-24.7533 -24.7424 -14.4024 -14.3080 -10.3658 -10.2482 -10.2340 -10.2183
-10.2122 -10.2108 -10.2071 -10.2065 -10.2064 -10.2040 -10.1944  -1.2945
 -1.2333  -1.0323  -0.9112  -0.8708  -0.8141  -0.7725  -0.7582  -0.7378
 -0.6672  -0.6404  -0.6313  -0.5928  -0.5843  -0.5798  -0.5666  -0.5413
 -0.5278  -0.4925  -0.4766  -0.4683  -0.4522  -0.4493  -0.4465  -0.4456
 -0.4340  -0.4278  -0.4181  -0.4087  -0.3921  -0.3865  -0.3616  -0.3281
 -0.2803  -0.2730  -0.2644  -0.2343  -0.2197

          Ground-State Mulliken Net Atomic Charges

     Atom                 Charge (a.u.)
  ----------------------------------------
      1 F                    -0.244948
      2 C                     0.546876
      3 F                    -0.233185
      4 C                    -0.300364
      5 C                     0.203963
      6 C                    -0.205090
      7 C                    -0.163891
      8 C                     0.325659
      9 N                    -0.493161
     10 C                     0.195057
     11 N                    -0.431191
     12 C                    -0.038631
     13 C                     0.006290
     14 C                    -0.162253
     15 C                    -0.205031
     16 H                     0.162593
     17 H                     0.138114
     18 H                     0.149103
     19 H                     0.158778
     20 H                     0.138112
     21 H                     0.157855
     22 H                     0.147551
     23 H                     0.147796
  ----------------------------------------
  Sum of atomic charges =     0.000000

                    Cartesian Multipole Moments
 -----------------------------------------------------------------
    Charge (ESU x 10^10)
                 0.0000
    Dipole Moment (Debye)
         X       2.6885      Y       0.0003      Z      -0.6154
       Tot       2.7580
    Quadrupole Moments (Debye-Ang)
        XX    -105.3716     XY      -6.7603     YY     -74.2862
        XZ       2.8181     YZ      -0.7055     ZZ     -85.8245

 Total job time:  34.99s(wall), 34.87s(cpu)
        *  Thank you very much for using Q-Chem.  Have a nice day.  *
