 Q-Chem 5.2, Q-Chem, Inc., Pleasanton, CA (2019)
 Q-Chem 5.2.1 for Intel X86 EM64T Linux

User input:
--------------------------------------------------------------
$molecule
0 1
C        -3.27829913070000    2.62888218960000    0.03823439430000
C        -2.00364106730000    2.26386908250000   -0.02485531020000
C        -1.48873483720000    0.89884831320000   -0.01540791980000
C        -2.32371660260000   -0.21905148700000   -0.01047520780000
C        -1.75741393250000   -1.47708654710000   -0.00111482930000
F        -2.56982539610000   -2.55475154800000    0.00239951870000
C        -0.39184388810000   -1.67828072950000    0.00383772890000
C         0.45494336470000   -0.56814185910000   -0.00193189310000
C         1.88924642430000   -0.81324035030000    0.00292946690000
C         2.87705201440000    0.06974949070000    0.00334692530000
F         2.79143603250000    1.39350366610000   -0.00101738520000
F         4.16074080050000   -0.27820412930000    0.00858634850000
C        -0.10757723380000    0.70649367480000   -0.01295795730000
H        -3.56117613820000    3.66719469300000    0.02675350620000
H        -4.08788925510000    1.92294452870000    0.10637728710000
H        -1.24018405290000    3.02909939340000   -0.08465775150000
H        -3.39670165470000   -0.12515156560000   -0.01742788440000
H         0.00071990670000   -2.68262862690000    0.01096846420000
H         2.20036198400000   -1.84781501430000    0.00748444140000
H         0.52993614410000    1.57544905660000   -0.01819301750000
$end

$rem
BASIS = 6-31G*
GUI = 2
METHOD = B3LYP
PRINT_ORBITALS false
MOLDEN_FORMAT false
--------------------------------------------------------------

             Standard Nuclear Orientation (Angstroms)
    I     Atom           X                Y                Z
 ----------------------------------------------------------------
    1      C       3.3422320091     2.4125485166    -0.0371701372
    2      C       2.0494621621     2.1179534696     0.0255031312
    3      C       1.4605157782     0.7832061465     0.0159574395
    4      C       2.2329714096    -0.3787792864     0.0113754429
    5      C       1.5985697549    -1.6038846560     0.0018929830
    6      F       2.3506938202    -2.7244585756    -0.0012807050
    7      C       0.2240266820    -1.7299292912    -0.0035166105
    8      C      -0.5606423540    -0.5750459941     0.0018986908
    9      C      -2.0062215632    -0.7411616468    -0.0034407687
   10      C      -2.9441449877     0.1946428818    -0.0042478934
   11      F      -2.7861036236     1.5117148409     0.0000697795
   12      F      -4.2449737470    -0.0824285476    -0.0099078271
   13      C       0.0708922286     0.6668423190     0.0130445852
   14      H       3.6815902563     3.4337964664    -0.0256518065
   15      H       4.1119354613     1.6632928650    -0.1049946805
   16      H       1.3290751574     2.9238834302     0.0849996491
   17      H       3.3094878013    -0.3438307627     0.0186909168
   18      H      -0.2229933238    -2.7112513800    -0.0107243775
   19      H      -2.3735733907    -1.7571290814    -0.0080430908
   20      H      -0.5180367252     1.5694342482     0.0180109859
 ----------------------------------------------------------------

    9    -684.7493039228      5.20e-06  Convergence criterion met
 Total energy in the final basis set =     -684.7493039228

                    Orbital Energies (a.u.)
 --------------------------------------------------------------

 Alpha MOs
 -- Occupied --
-24.7510 -24.7405 -24.7048 -10.3641 -10.2736 -10.2177 -10.2096 -10.2077
-10.1977 -10.1968 -10.1942 -10.1918 -10.1871  -1.2927  -1.2314  -1.2169
 -0.8806  -0.8228  -0.7924  -0.7465  -0.7387  -0.6587  -0.6361  -0.6198
 -0.5860  -0.5718  -0.5383  -0.5258  -0.5171  -0.5064  -0.4836  -0.4604
 -0.4599  -0.4481  -0.4473  -0.4412  -0.4329  -0.4189  -0.3876  -0.3833
 -0.3823  -0.3647  -0.3510  -0.3265  -0.2814  -0.2356  -0.2269

          Ground-State Mulliken Net Atomic Charges

     Atom                 Charge (a.u.)
  ----------------------------------------
      1 C                    -0.350238
      2 C                    -0.111768
      3 C                     0.185628
      4 C                    -0.264339
      5 C                     0.392887
      6 F                    -0.300065
      7 C                    -0.272195
      8 C                     0.203556
      9 C                    -0.299473
     10 C                     0.550404
     11 F                    -0.231408
     12 F                    -0.244940
     13 C                    -0.275598
     14 H                     0.148949
     15 H                     0.147058
     16 H                     0.132881
     17 H                     0.141700
     18 H                     0.143427
     19 H                     0.163636
     20 H                     0.139897
  ----------------------------------------
  Sum of atomic charges =     0.000000

                    Cartesian Multipole Moments
 -----------------------------------------------------------------
    Charge (ESU x 10^10)
                -0.0000
    Dipole Moment (Debye)
         X      -0.0380      Y       0.5341      Z       0.0020
       Tot       0.5354
    Quadrupole Moments (Debye-Ang)
        XX     -71.1761     XY       5.9424     YY     -69.1780
        XZ      -0.1233     YZ       0.1058     ZZ     -74.2650

 Total job time:  25.66s(wall), 25.57s(cpu)
        *  Thank you very much for using Q-Chem.  Have a nice day.  *
