 Q-Chem 5.2, Q-Chem, Inc., Pleasanton, CA (2019)
 Q-Chem 5.2.1 for Intel X86 EM64T Linux

User input:
--------------------------------------------------------------
$molecule
0 1
C        -2.73585668160000    2.56053296030000   -0.42637729770000
C        -2.52422363470000    1.34031324570000    0.04792254720000
C        -1.27907126860000    0.58791860930000   -0.11002147550000
C        -0.06009339130000    1.25785414960000   -0.13342576240000
C         1.16013370580000    0.60912823610000   -0.24947512660000
C         2.40831030580000    1.44868111800000   -0.27309073210000
C         2.74668353580000    1.98812169260000    1.11795814470000
C         1.16443048330000   -0.78473312820000   -0.36662030300000
C         2.36883569160000   -1.60898166430000   -0.50616294120000
C         3.48073675830000   -1.51565397890000    0.20825265660000
C        -0.06014934980000   -1.45306715020000   -0.38433405020000
C        -1.27442052660000   -0.80734829100000   -0.24316040070000
C        -2.53924974870000   -1.62262019690000   -0.23820065780000
C        -2.88939102560000   -2.07207818320000    1.18219085840000
H        -3.67003010190000    3.07341848790000   -0.27134422570000
H        -1.99450792740000    3.08897450150000   -1.00224569060000
H        -3.31585507370000    0.84398838160000    0.59299323350000
H        -0.06246581030000    2.33438385980000   -0.03852062070000
H         2.24919656400000    2.29645913640000   -0.94523231240000
H         3.24645880290000    0.86720477390000   -0.65779779170000
H         1.94101711380000    2.61788597590000    1.48833528010000
H         3.66003384910000    2.57824426730000    1.08438765820000
H         2.88548259750000    1.17378139990000    1.82549821200000
H         2.28185812690000   -2.40133492970000   -1.24151143240000
H         3.60651931250000   -0.78767445080000    0.99031020380000
H         4.30683634430000   -2.18934713870000    0.05110969020000
H        -0.05460119740000   -2.52918873240000   -0.49927416860000
H        -2.39766158120000   -2.50761612180000   -0.86275508060000
H        -3.36523271480000   -1.04791107640000   -0.65957314980000
H        -2.08322862990000   -2.67493397960000    1.59457692860000
H        -3.80122138610000   -2.66550700950000    1.18036138440000
H        -3.03546729050000   -1.21361707680000    1.83407554320000
$end

$rem
BASIS = 6-31G*
GUI = 2
METHOD = B3LYP
PRINT_ORBITALS false
MOLDEN_FORMAT false
--------------------------------------------------------------

             Standard Nuclear Orientation (Angstroms)
    I     Atom           X                Y                Z
 ----------------------------------------------------------------
    1      C      -2.5931719485    -2.7060872235     0.4287415466
    2      C      -2.4487321855    -1.4730020167    -0.0374376777
    3      C      -1.2470054471    -0.6542370185     0.1266511454
    4      C       0.0069966003    -1.2561790499     0.1469762587
    5      C       1.1895724790    -0.5420227277     0.2684751177
    6      C       2.4820686749    -1.3117149330     0.2879444778
    7      C       2.8505665222    -1.8226325564    -1.1062155103
    8      C       1.1170319548     0.8491680434     0.3946379819
    9      C       2.2741291321     1.7375528137     0.5407486426
   10      C       3.3899617495     1.7102431459    -0.1731108935
   11      C      -0.1425029726     1.4489346960     0.4154138962
   12      C      -1.3192806789     0.7382724152     0.2688168710
   13      C      -2.6270797385     1.4826825737     0.2678287797
   14      C      -3.0004850183     1.9214247877    -1.1499854611
   15      H      -3.4975820031    -3.2686083316     0.2694328738
   16      H      -1.8242365276    -3.1966499464     1.0019425383
   17      H      -3.2661261874    -1.0174757270    -0.5801011130
   18      H       0.0639699565    -2.3305652112     0.0451074982
   19      H       2.3694273971    -2.1713286109     0.9544242768
   20      H       3.2866683760    -0.6874918739     0.6772670396
   21      H       2.0810489302    -2.4933742151    -1.4814873600
   22      H       3.7950030925    -2.3617781245    -1.0755227298
   23      H       2.9447889441    -0.9972930518    -1.8083302275
   24      H       2.1431593077     2.5191075986     1.2811169434
   25      H       3.5561643455     0.9954039530    -0.9597309268
   26      H       4.1776057731     2.4273603726    -0.0107634679
   27      H      -0.1962963948     2.5229576802     0.5373178323
   28      H      -2.5348575720     2.3700439189     0.8982398664
   29      H      -3.4204462956     0.8606344915     0.6846247730
   30      H      -2.2284648694     2.5704264071    -1.5576335668
   31      H      -3.9436097704     2.4637245758    -1.1452560905
   32      H      -3.0986312427     1.0604883954    -1.8075592103
 ----------------------------------------------------------------

    8    -544.2970569962      6.70e-06  Convergence criterion met
 Total energy in the final basis set =     -544.2970569962

                    Orbital Energies (a.u.)
 --------------------------------------------------------------

 Alpha MOs
 -- Occupied --
-10.1871 -10.1867 -10.1867 -10.1862 -10.1841 -10.1841 -10.1818 -10.1772
-10.1768 -10.1766 -10.1764 -10.1755 -10.1730 -10.1706  -0.8671  -0.8125
 -0.7887  -0.7706  -0.7544  -0.7154  -0.7051  -0.6416  -0.6267  -0.6048
 -0.5862  -0.5621  -0.5330  -0.4951  -0.4792  -0.4667  -0.4449  -0.4390
 -0.4337  -0.4251  -0.4165  -0.4143  -0.4091  -0.3840  -0.3762  -0.3759
 -0.3571  -0.3517  -0.3482  -0.3402  -0.3386  -0.3230  -0.3151  -0.2955
 -0.2618  -0.2322  -0.2114

          Ground-State Mulliken Net Atomic Charges

     Atom                 Charge (a.u.)
  ----------------------------------------
      1 C                    -0.338702
      2 C                    -0.134975
      3 C                     0.115873
      4 C                    -0.257240
      5 C                     0.139527
      6 C                    -0.346976
      7 C                    -0.443445
      8 C                     0.098532
      9 C                    -0.140409
     10 C                    -0.338955
     11 C                    -0.257793
     12 C                     0.128942
     13 C                    -0.344906
     14 C                    -0.440792
     15 H                     0.140770
     16 H                     0.144072
     17 H                     0.134975
     18 H                     0.120566
     19 H                     0.141912
     20 H                     0.152267
     21 H                     0.150157
     22 H                     0.143008
     23 H                     0.151266
     24 H                     0.135436
     25 H                     0.150660
     26 H                     0.140855
     27 H                     0.116746
     28 H                     0.144277
     29 H                     0.146778
     30 H                     0.152534
     31 H                     0.143689
     32 H                     0.151354
  ----------------------------------------
  Sum of atomic charges =     0.000000

                    Cartesian Multipole Moments
 -----------------------------------------------------------------
    Charge (ESU x 10^10)
                 0.0000
    Dipole Moment (Debye)
         X      -0.1349      Y       0.1616      Z      -0.0255
       Tot       0.2120
    Quadrupole Moments (Debye-Ang)
        XX     -80.1477     XY       0.1006     YY     -80.5604
        XZ       0.4620     YZ       0.7588     ZZ     -88.0087

 Total job time:  44.43s(wall), 44.23s(cpu)
        *  Thank you very much for using Q-Chem.  Have a nice day.  *
