 Q-Chem 5.4, Q-Chem, Inc., Pleasanton, CA (2021)
 Q-Chem 5.4.2 for Intel X86 EM64T Linux

User input:
--------------------------------------------------------------
$molecule
0 1
C            2.54100366580000       -3.60230661440000        0.39821185260000
C            2.32474821760000       -2.40730451400000       -0.13404039080000
C            1.05369180510000       -1.68533527350000       -0.04904447000000
C           -0.14652106890000       -2.38781097670000       -0.12774456620000
C           -1.36466401950000       -1.73903051140000       -0.09808395080000
C           -1.38968796000000       -0.35438497410000        0.00443455070000
C           -2.70038330730000        0.37612047740000        0.07114273310000
F           -3.71681632360000       -0.32309625130000       -0.45479185530000
F           -3.05585054760000        0.65271098480000        1.34318584090000
F           -2.67362813470000        1.55358133960000       -0.57059886870000
C           -0.21100644390000        0.36919599110000        0.09294752240000
C            1.01921205150000       -0.28229241520000        0.06819518330000
C            2.26590901160000        0.46050921920000        0.22244655710000
C            2.47739120150000        1.72659449010000       -0.10460056270000
F            1.62515004470000        2.56841077120000       -0.66871626160000
F            3.64135501490000        2.34034124530000        0.07866589190000
H            3.48991585540000       -4.10026081280000        0.29915357910000
H            1.78875706880000       -4.11747193280000        0.97166255640000
H            3.11603077630000       -1.91069552390000       -0.67930589950000
H           -0.11902260590000       -3.46083122650000       -0.23570586700000
H           -2.28668525650000       -2.29512128410000       -0.16437441030000
H           -0.25908842270000        1.44169218490000        0.19370565930000
H            3.10870439760000       -0.06154681760000        0.64895326050000
$end

$rem
BASIS = 6-31G*
GUI = 2
METHOD = B3LYP
PRINT_ORBITALS false
MOLDEN_FORMAT false
$end
--------------------------------------------------------------

             Standard Nuclear Orientation (Angstroms)
    I     Atom           X                Y                Z
 ----------------------------------------------------------------
    1      C      -2.5852779886    -3.4548422462    -0.2418584225
    2      C      -2.3389629831    -2.2410225216     0.2314907972
    3      C      -1.0463548286    -1.5615336974     0.1242182878
    4      C       0.1317472882    -2.2936248464     0.2518690367
    5      C       1.3687673229    -1.6828392237     0.2029768179
    6      C       1.4357060585    -0.3065385189     0.0306542122
    7      C       2.7680089368     0.3812541423    -0.0583445832
    8      F       3.7581789040    -0.3194299937     0.5137152731
    9      F       3.1438177941     0.5821470565    -1.3387205731
   10      F       2.7698505060     1.5902037823     0.5225164856
   11      C       0.2798439581     0.4454957746    -0.1076255837
   12      C      -0.9692782233    -0.1678929930    -0.0636328125
   13      C      -2.1919170658     0.6019492508    -0.2692981847
   14      C      -2.3690410580     1.8886769538    -0.0092686518
   15      F      -1.4977980668     2.7330829427     0.5209297435
   16      F      -3.5125204901     2.5258047315    -0.2364391060
   17      H      -3.5494119695    -3.9193367070    -0.1282986077
   18      H      -1.8430630308    -4.0202151799    -0.7799907110
   19      H      -3.1204702035    -1.6944787492     0.7419801909
   20      H       0.0714946436    -3.3584881110     0.4137952883
   21      H       2.2732602345    -2.2613551204     0.3076977051
   22      H       0.3605848006     1.5096058622    -0.2621014796
   23      H      -3.0456008020     0.0834988865    -0.6781842747
 ----------------------------------------------------------------

    9    -922.5489751404      4.14e-06  Convergence criterion met
 Total energy in the final basis set =     -922.5489751404

                    Orbital Energies (a.u.)
 --------------------------------------------------------------

 Alpha MOs
 -- Occupied --
-24.7526 -24.7439 -24.7219 -24.7202 -24.7129 -10.4273 -10.3677 -10.2211
-10.2153 -10.2140 -10.2113 -10.2070 -10.2063 -10.2044 -10.2030 -10.1960
 -1.3030  -1.2958  -1.2346  -1.2140  -1.2069  -0.8913  -0.8268  -0.8131
 -0.7609  -0.7530  -0.6962  -0.6586  -0.6413  -0.6226  -0.5876  -0.5824
 -0.5769  -0.5767  -0.5631  -0.5294  -0.5238  -0.5058  -0.4847  -0.4584
 -0.4537  -0.4522  -0.4515  -0.4471  -0.4455  -0.4395  -0.4225  -0.4194
 -0.4156  -0.4072  -0.3917  -0.3871  -0.3801  -0.3629  -0.3542  -0.3092
 -0.3064  -0.2544  -0.2338

          Ground-State Mulliken Net Atomic Charges

     Atom                 Charge (a.u.)
  ----------------------------------------
      1 C                    -0.332571
      2 C                    -0.137568
      3 C                     0.107768
      4 C                    -0.193445
      5 C                    -0.160756
      6 C                    -0.004829
      7 C                     0.775032
      8 F                    -0.267274
      9 F                    -0.263109
     10 F                    -0.264634
     11 C                    -0.229167
     12 C                     0.122332
     13 C                    -0.321613
     14 C                     0.562039
     15 F                    -0.228825
     16 F                    -0.242232
     17 H                     0.151185
     18 H                     0.151609
     19 H                     0.147690
     20 H                     0.140881
     21 H                     0.153989
     22 H                     0.159196
     23 H                     0.174302
  ----------------------------------------
  Sum of atomic charges =     0.000000

                    Cartesian Multipole Moments
 -----------------------------------------------------------------
    Charge (ESU x 10^10)
                -0.0000
    Dipole Moment (Debye)
         X      -2.3806      Y      -2.1688      Z       0.0150
       Tot       3.2204
    Quadrupole Moments (Debye-Ang)
        XX     -89.3221     XY       1.0121     YY     -82.0282
        XZ       0.5466     YZ      -0.1102     ZZ     -89.1865

 Total job time:  76.24s(wall), 66.13s(cpu)
        *  Thank you very much for using Q-Chem.  Have a nice day.  *
