 Q-Chem 5.4, Q-Chem, Inc., Pleasanton, CA (2021)
 Q-Chem 5.4.2 for Intel X86 EM64T Linux

User input:
--------------------------------------------------------------
$molecule
0 1
C           -2.77341219500000        2.79842888920000        0.21473851260000
C           -2.30840696390000        1.72442098410000       -0.40791704740000
C           -0.96450246410000        1.17754568740000       -0.23668890150000
C            0.11572336730000        2.03379310950000       -0.02102221740000
C            1.40924390890000        1.56166246480000        0.06281265420000
C            1.64520240640000        0.20183793720000       -0.09650920840000
C            3.03862230740000       -0.35127536880000       -0.01550458420000
F            3.98708006510000        0.58106072460000       -0.17741048950000
F            3.28255018520000       -0.93436616610000        1.17553150520000
F            3.26990249170000       -1.29695938370000       -0.94258999630000
C            0.59103408840000       -0.67169823070000       -0.30752031370000
C           -0.71757088380000       -0.20118753830000       -0.35858677600000
C           -1.78094124330000       -1.19141341820000       -0.53253464200000
C           -2.92774572540000       -1.22319289490000        0.12617767800000
F           -3.33479141630000       -0.38297942940000        1.06628570460000
F           -3.85021153110000       -2.16311080160000       -0.05001179500000
H           -3.77010158630000        3.16252507710000        0.03760485300000
H           -2.19189297600000        3.33382353260000        0.94595100150000
H           -2.94368412930000        1.18802162340000       -1.10143361480000
H           -0.06716079800000        3.09379978000000        0.05833570390000
H            2.23263494280000        2.23863815400000        0.22860566900000
H            0.78554081210000       -1.72778642440000       -0.42077311110000
H           -1.59197561270000       -2.00980326410000       -1.21135480390000
$end

$rem
BASIS = 6-31G*
GUI = 2
METHOD = B3LYP
PRINT_ORBITALS false
MOLDEN_FORMAT false
$end
--------------------------------------------------------------

             Standard Nuclear Orientation (Angstroms)
    I     Atom           X                Y                Z
 ----------------------------------------------------------------
    1      C       2.7720878313     2.7051596020    -0.0841898450
    2      C       2.2762513943     1.6220034979     0.4974817750
    3      C       0.9291661156     1.1004548637     0.2788056523
    4      C      -0.1328186496     1.9785391203     0.0603657062
    5      C      -1.4306112900     1.5285826245    -0.0677141023
    6      C      -1.6902106965     0.1687163865     0.0487100242
    7      C      -3.0891108101    -0.3607391662    -0.0811760365
    8      F      -4.0276015609     0.5812395823     0.0829805330
    9      F      -3.3120050227    -0.9078148390    -1.2932358667
   10      F      -3.3569705555    -1.3273763118     0.8138993383
   11      C      -0.6544094732    -0.7261264463     0.2613931130
   12      C       0.6592473430    -0.2771377728     0.3570487917
   13      C       1.7034632157    -1.2877582098     0.5297370031
   14      C       2.8656066632    -1.3192729142    -0.1015329920
   15      F       3.3079454739    -0.4603819725    -1.0082251617
   16      F       3.7696531452    -2.2775243029     0.0713421044
   17      H       3.7692932569     3.0491441976     0.1269689751
   18      H       2.2166687626     3.2688123478    -0.8144562145
   19      H       2.8863229416     1.0575415249     1.1913563807
   20      H       0.0673867710     3.0373887972     0.0143919062
   21      H      -2.2397095868     2.2222293390    -0.2349575892
   22      H      -0.8670129790    -1.7817938699     0.3410635256
   23      H       1.4858876527    -2.1211312554     1.1812099517
 ----------------------------------------------------------------

    9    -922.5460632583      3.72e-06  Convergence criterion met
 Total energy in the final basis set =     -922.5460632583

                    Orbital Energies (a.u.)
 --------------------------------------------------------------

 Alpha MOs
 -- Occupied --
-24.7476 -24.7432 -24.7240 -24.7203 -24.7147 -10.4288 -10.3667 -10.2210
-10.2166 -10.2144 -10.2116 -10.2094 -10.2077 -10.2033 -10.1997 -10.1897
 -1.3042  -1.2928  -1.2320  -1.2151  -1.2084  -0.8919  -0.8275  -0.8102
 -0.7600  -0.7546  -0.6956  -0.6563  -0.6417  -0.6207  -0.5844  -0.5815
 -0.5781  -0.5755  -0.5722  -0.5279  -0.5167  -0.5019  -0.4825  -0.4667
 -0.4542  -0.4534  -0.4482  -0.4457  -0.4420  -0.4397  -0.4213  -0.4182
 -0.4164  -0.4095  -0.3931  -0.3854  -0.3793  -0.3633  -0.3559  -0.3068
 -0.2996  -0.2529  -0.2366

          Ground-State Mulliken Net Atomic Charges

     Atom                 Charge (a.u.)
  ----------------------------------------
      1 C                    -0.335826
      2 C                    -0.128852
      3 C                     0.124214
      4 C                    -0.192646
      5 C                    -0.159037
      6 C                    -0.005759
      7 C                     0.775431
      8 F                    -0.266036
      9 F                    -0.262670
     10 F                    -0.267601
     11 C                    -0.215024
     12 C                     0.108848
     13 C                    -0.342486
     14 C                     0.570853
     15 F                    -0.224891
     16 F                    -0.241810
     17 H                     0.149350
     18 H                     0.147779
     19 H                     0.142266
     20 H                     0.141676
     21 H                     0.154692
     22 H                     0.153371
     23 H                     0.174159
  ----------------------------------------
  Sum of atomic charges =     0.000000

                    Cartesian Multipole Moments
 -----------------------------------------------------------------
    Charge (ESU x 10^10)
                -0.0000
    Dipole Moment (Debye)
         X       1.7649      Y       1.0044      Z       0.6577
       Tot       2.1345
    Quadrupole Moments (Debye-Ang)
        XX     -94.6410     XY      -0.1729     YY     -80.7799
        XZ       1.5669     YZ      -2.4506     ZZ     -88.5402

 Total job time:  72.08s(wall), 67.45s(cpu)
        *  Thank you very much for using Q-Chem.  Have a nice day.  *
