 Q-Chem 5.2, Q-Chem, Inc., Pleasanton, CA (2019)
 Q-Chem 5.2.1 for Intel X86 EM64T Linux

User input:
--------------------------------------------------------------
$molecule
0 1
C         1.76751526740000    1.92618244920000   -0.35256985360000
C         1.70945019590000    0.80110029500000    0.34604053930000
C         0.70855235130000   -0.23963072860000    0.18911457650000
C         1.01691496490000   -1.62804740020000    0.25285047290000
C        -0.13398773630000   -2.29297115830000   -0.02440935910000
O        -1.13665434770000   -1.43211898460000   -0.24156072270000
C        -0.64300014440000   -0.17352747940000   -0.10691200660000
C        -1.61692145770000    0.88603738170000   -0.21707155450000
C        -1.48564414810000    2.13631010200000    0.21340439260000
H         2.56465119140000    2.63596402200000   -0.21128423030000
H         1.02756514810000    2.17131308040000   -1.09537868320000
H         2.49560877960000    0.56255902030000    1.05253928880000
H         1.97727331990000   -2.05497516960000    0.45961741160000
H        -0.36062009650000   -3.33891285710000   -0.09144788180000
H        -2.55059561630000    0.55839164010000   -0.65750127650000
H        -0.58752625700000    2.48582465810000    0.69065024320000
H        -2.28767368080000    2.84552958210000    0.10695258130000
$end

$rem
BASIS = 6-31G*
GUI = 2
METHOD = B3LYP
PRINT_ORBITALS false
MOLDEN_FORMAT false
--------------------------------------------------------------

             Standard Nuclear Orientation (Angstroms)
    I     Atom           X                Y                Z
 ----------------------------------------------------------------
    1      C       2.0112654498     1.5726329577     0.4553091472
    2      C       0.8802745676     1.6503150039    -0.2317592710
    3      C      -0.2326888653     0.7222679518    -0.1338594103
    4      C      -1.5939353312     1.1385129827    -0.1583288441
    5      C      -2.3428165147     0.0241928186     0.0442574117
    6      O      -1.5595067786    -1.0537292790     0.1786870302
    7      C      -0.2678714450    -0.6482282174     0.0641253431
    8      C       0.7150275234    -1.7048731829     0.0914489631
    9      C       1.9686943890    -1.6378102155    -0.3439211056
   10      H       2.7788126394     2.3219277964     0.3625419866
   11      H       2.2043072232     0.7646470252     1.1403447444
   12      H       0.6975770108     2.5011406601    -0.8773636754
   13      H      -1.9477525489     2.1408017049    -0.2907627936
   14      H      -3.4025170389    -0.1269512653     0.1078238524
   15      H       0.3201245981    -2.6404175775     0.4681263736
   16      H       2.3824369099    -0.7366268072    -0.7601246187
   17      H       2.6153667926    -2.4967478985    -0.3037155157
 ----------------------------------------------------------------

    9    -384.8185517891      3.21e-06  Convergence criterion met
 Total energy in the final basis set =     -384.8185517891

                    Orbital Energies (a.u.)
 --------------------------------------------------------------

 Alpha MOs
 -- Occupied --
-19.2161 -10.2380 -10.2341 -10.1935 -10.1927 -10.1901 -10.1821 -10.1774
-10.1770  -1.1196  -0.8245  -0.7959  -0.7570  -0.7226  -0.6254  -0.5983
 -0.5910  -0.5208  -0.5123  -0.4737  -0.4590  -0.4517  -0.4271  -0.4188
 -0.3981  -0.3767  -0.3591  -0.3552  -0.3083  -0.2935  -0.2504  -0.1984

          Ground-State Mulliken Net Atomic Charges

     Atom                 Charge (a.u.)
  ----------------------------------------
      1 C                    -0.337518
      2 C                    -0.128112
      3 C                     0.068176
      4 C                    -0.212655
      5 C                     0.082739
      6 O                    -0.428817
      7 C                     0.266906
      8 C                    -0.127219
      9 C                    -0.349881
     10 H                     0.141031
     11 H                     0.156073
     12 H                     0.132712
     13 H                     0.139359
     14 H                     0.154519
     15 H                     0.141739
     16 H                     0.157948
     17 H                     0.143001
  ----------------------------------------
  Sum of atomic charges =     0.000000

                    Cartesian Multipole Moments
 -----------------------------------------------------------------
    Charge (ESU x 10^10)
                 0.0000
    Dipole Moment (Debye)
         X      -0.1890      Y       0.6538      Z      -0.0873
       Tot       0.6862
    Quadrupole Moments (Debye-Ang)
        XX     -46.3475     XY      -1.4295     YY     -49.1181
        XZ       0.1470     YZ      -1.9200     ZZ     -54.7499

 Total job time:  14.99s(wall), 14.91s(cpu)
        *  Thank you very much for using Q-Chem.  Have a nice day.  *
