 Q-Chem 5.4, Q-Chem, Inc., Pleasanton, CA (2021)
 Q-Chem 5.4.2 for Intel X86 EM64T Linux

User input:
--------------------------------------------------------------
$molecule
0 1
C           -4.52827934880000       -0.43659358020000       -0.55717084490000
C           -3.64655107920000        0.33193510290000        0.06872980250000
C           -2.20434989770000        0.10024913840000        0.09583274530000
C           -1.69746274220000       -1.19673812130000        0.05193311080000
C           -0.34236478240000       -1.47145739640000        0.08488384860000
C            0.12818362420000       -2.89447752920000        0.02615228750000
C            0.55848190020000       -0.39730111170000        0.16223157300000
C            1.99050871300000       -0.65633932470000        0.21267057200000
C            2.97551617760000        0.18285079550000       -0.06785593240000
F            2.89181624750000        1.44314501150000       -0.48156222950000
F            4.26436662510000       -0.15454025520000        0.01677683020000
C            0.05300655230000        0.90190432530000        0.21121408320000
C           -1.30328562160000        1.17129276550000        0.18227168060000
C           -1.78128786110000        2.59167963750000        0.22414753670000
H           -5.58222890270000       -0.21744363880000       -0.53730057550000
H           -4.23406775250000       -1.30023734150000       -1.12978270790000
H           -3.99295144340000        1.20982029260000        0.59764045710000
H           -2.39432858600000       -2.02102905470000        0.00953879440000
H           -0.71765561810000       -3.56652088970000       -0.09408320230000
H            0.64982582000000       -3.16877602830000        0.94309396390000
H            0.80794296310000       -3.04494311790000       -0.81118510690000
H            2.30911971830000       -1.64592025200000        0.50215862800000
H            0.73839133480000        1.73124053970000        0.28734227520000
H           -0.93902888020000        3.27756540230000        0.18467152320000
H           -2.33538525790000        2.78385957300000        1.14318898140000
H           -2.44003876530000        2.80137442300000       -0.61701343030000
$end

$rem
BASIS = 6-31G*
GUI = 2
METHOD = B3LYP
PRINT_ORBITALS false
MOLDEN_FORMAT false
$end
--------------------------------------------------------------

             Standard Nuclear Orientation (Angstroms)
    I     Atom           X                Y                Z
 ----------------------------------------------------------------
    1      C       4.3994767053    -0.5062832787     0.5343011187
    2      C       3.5297126526     0.2860178475    -0.0785627461
    3      C       2.0831737821     0.0825690253    -0.1007229906
    4      C       1.5514610534    -1.2047828568    -0.0684054420
    5      C       0.1911445672    -1.4528735358    -0.0973361233
    6      C      -0.3066064087    -2.8670934567    -0.0517567538
    7      C      -0.6890810105    -0.3607138635    -0.1582403313
    8      C      -2.1260938824    -0.5914469183    -0.2040872978
    9      C      -3.0932392661     0.2634764287     0.0907190121
   10      F      -2.9830649250     1.5172676031     0.5177663104
   11      F      -4.3887935526    -0.0479799460     0.0090800569
   12      C      -0.1587620762     0.9289391167    -0.1956087631
   13      C       1.2026251015     1.1717214985    -0.1707507099
   14      C       1.7078611800     2.5829784196    -0.1995431097
   15      H       5.4573651056    -0.3073426543     0.5113675828
   16      H       4.0914274305    -1.3703540599     1.0989361202
   17      H       3.8904336521     1.1628346244    -0.5996143745
   18      H       2.2324171247    -2.0428095271    -0.0386572639
   19      H       0.5266319923    -3.5566505455     0.0567221083
   20      H      -0.8380215906    -3.1211052675    -0.9689307773
   21      H      -0.9849830634    -3.0136355016     0.7873958591
   22      H      -2.4652660965    -1.5714236289    -0.5027419056
   23      H      -0.8283093126     1.7721607114    -0.2590926083
   24      H       0.8792648613     3.2845400624    -0.1481891327
   25      H       2.2610035297     2.7745567521    -1.1192852003
   26      H       2.3747282760     2.7705895613     0.6404371074
 ----------------------------------------------------------------

    9    -664.1467928684      7.57e-06  Convergence criterion met
 Total energy in the final basis set =     -664.1467928684

                    Orbital Energies (a.u.)
 --------------------------------------------------------------

 Alpha MOs
 -- Occupied --
-24.7410 -24.7310 -10.3538 -10.1993 -10.1980 -10.1918 -10.1898 -10.1879
-10.1876 -10.1827 -10.1798 -10.1794 -10.1792 -10.1788  -1.2815  -1.2206
 -0.8712  -0.8184  -0.7851  -0.7756  -0.7231  -0.7183  -0.6588  -0.6463
 -0.6161  -0.5860  -0.5664  -0.5520  -0.5174  -0.5156  -0.4865  -0.4809
 -0.4484  -0.4395  -0.4368  -0.4338  -0.4266  -0.4231  -0.4144  -0.4097
 -0.4005  -0.3944  -0.3749  -0.3715  -0.3550  -0.3354  -0.3288  -0.3072
 -0.2643  -0.2380  -0.2068

          Ground-State Mulliken Net Atomic Charges

     Atom                 Charge (a.u.)
  ----------------------------------------
      1 C                    -0.339005
      2 C                    -0.130860
      3 C                     0.123532
      4 C                    -0.266010
      5 C                     0.130466
      6 C                    -0.539065
      7 C                     0.151883
      8 C                    -0.313870
      9 C                     0.550112
     10 F                    -0.235512
     11 F                    -0.251436
     12 C                    -0.272348
     13 C                     0.128140
     14 C                    -0.537117
     15 H                     0.141547
     16 H                     0.143416
     17 H                     0.131424
     18 H                     0.121494
     19 H                     0.159497
     20 H                     0.162295
     21 H                     0.165509
     22 H                     0.160474
     23 H                     0.128284
     24 H                     0.158270
     25 H                     0.161966
     26 H                     0.166915
  ----------------------------------------
  Sum of atomic charges =     0.000000

                    Cartesian Multipole Moments
 -----------------------------------------------------------------
    Charge (ESU x 10^10)
                 0.0000
    Dipole Moment (Debye)
         X       0.9144      Y      -0.5658      Z      -0.2571
       Tot       1.1056
    Quadrupole Moments (Debye-Ang)
        XX     -80.9034     XY       2.4262     YY     -74.6003
        XZ       0.7799     YZ      -1.3280     ZZ     -82.3844

 Total job time:  68.36s(wall), 62.21s(cpu)
        *  Thank you very much for using Q-Chem.  Have a nice day.  *
