 Q-Chem 5.2, Q-Chem, Inc., Pleasanton, CA (2019)
 Q-Chem 5.2.1 for Intel X86 EM64T Linux

User input:
--------------------------------------------------------------
$molecule
0 1
C         4.71789139700000   -1.71022163600000    0.70948128590000
O         3.66773977890000   -2.44145718190000    0.09232936630000
C         2.43248798660000   -2.16501121120000    0.52676918070000
C         1.40729538060000   -2.98637088750000   -0.17139386690000
C         0.19710841040000   -2.41457700170000   -0.59209195810000
N        -0.01144069450000   -1.03255910560000   -0.52163882360000
C         1.02726100800000   -0.16169947190000   -0.84135643740000
C         1.18675759370000    1.03924865020000   -0.14935835130000
C         2.24403236620000    1.87218912280000   -0.46497365500000
C         2.45473010970000    3.15402312790000    0.28816193090000
F         1.45661222090000    3.45859185000000    1.12546527110000
F         3.57999099930000    3.12444048340000    1.02899683770000
F         2.59066022150000    4.20973213100000   -0.53823363120000
C         3.15965179070000    1.53734249440000   -1.45651709910000
C         2.99363034710000    0.34774488780000   -2.14400152860000
C         1.93871310640000   -0.49290010090000   -1.84678270540000
C        -1.24791209640000   -0.54380460410000   -0.08813986110000
C        -1.96959771530000   -1.22011836770000    0.89542292460000
C        -3.19192496730000   -0.74130007720000    1.31118717750000
C        -3.73956564440000    0.42371056220000    0.76580192920000
C        -5.03218963600000    0.86864888860000    1.25415980350000
C        -5.75203239390000    1.90829025950000    0.85657785500000
F        -5.46168331660000    2.79105761890000   -0.09208443630000
F        -6.93581152110000    2.21693087530000    1.38429803260000
C        -3.00981838760000    1.09577272740000   -0.21822535350000
C        -1.78714718620000    0.61921929090000   -0.63908090380000
C        -0.78968555920000   -3.24107036320000   -1.12888503020000
C        -0.57446352480000   -4.59883245540000   -1.25795422680000
C         0.63608097380000   -5.15664457890000   -0.87464497850000
C         1.62104440810000   -4.34999516630000   -0.33600208090000
O         2.19614732750000   -1.36894236180000    1.40069692310000
H         5.64188435680000   -2.07498869870000    0.26902123750000
H         4.71233344520000   -1.87494132940000    1.78860647110000
H         4.59516527050000   -0.64198072380000    0.51728339540000
H         0.50454979320000    1.29922806850000    0.64422728850000
H         3.98127169660000    2.19964378800000   -1.67945121950000
H         3.69083344690000    0.07478189570000   -2.92093048420000
H         1.81642933370000   -1.41736455270000   -2.39170520490000
H        -1.55570080590000   -2.11347098560000    1.33787510850000
H        -3.73366124830000   -1.27203319380000    2.08003530510000
H        -5.47635354790000    0.28134604920000    2.04498872320000
H        -3.39786061850000    1.99544562380000   -0.66595437590000
H        -1.24193855230000    1.14636595810000   -1.40780789070000
H        -1.72226995640000   -2.80200084270000   -1.45073830880000
H        -1.34949821920000   -5.22351721210000   -1.67566631170000
H         0.80779984050000   -6.21530171770000   -0.99079586570000
H         2.56134073120000   -4.77188986070000   -0.01636112110000
$end

$rem
BASIS = 6-31G*
GUI = 2
METHOD = B3LYP
PRINT_ORBITALS false
MOLDEN_FORMAT false
--------------------------------------------------------------

             Standard Nuclear Orientation (Angstroms)
    I     Atom           X                Y                Z
 ----------------------------------------------------------------
    1      C       4.8386564248     0.0787112776    -1.3065059962
    2      O       4.1305943434     1.1315899724    -0.6673699547
    3      C       2.8269548380     1.2165605375    -0.9577341409
    4      C       2.1786089802     2.3526343070    -0.2491670818
    5      C       0.9112458412     2.2029652549     0.3338230411
    6      N       0.2973116971     0.9479760358     0.4145495246
    7      C       1.0625189331    -0.1752687549     0.7183522685
    8      C       0.7785937821    -1.4089508739     0.1318440914
    9      C       1.5721288751    -2.5020436563     0.4262638949
   10      C       1.3057540815    -3.8320156657    -0.2178821211
   11      F       0.1717223610    -3.8711170858    -0.9267695916
   12      F       2.2952072038    -4.1921656084    -1.0588328326
   13      F       1.2193647182    -4.8250055932     0.6890004520
   14      C       2.6548458772    -2.3994085999     1.2927680987
   15      C       2.9287067843    -1.1748198518     1.8764829501
   16      C       2.1418262366    -0.0739617286     1.5993479528
   17      C      -1.0700453819     0.8315337157     0.1454033829
   18      C      -1.6694431328     1.6318231697    -0.8271629741
   19      C      -3.0183867888     1.5216471045    -1.0809798923
   20      C      -3.8180308451     0.6146528096    -0.3791708710
   21      C      -5.2320988433     0.5534693304    -0.7016744982
   22      C      -6.1752654954    -0.1913365075    -0.1423891398
   23      F      -6.0499155280    -1.0591151018     0.8550017753
   24      F      -7.4504713055    -0.1584680883    -0.5269023990
   25      C      -3.2096790707    -0.1840134576     0.5927080402
   26      C      -1.8604842696    -0.0757749671     0.8517548633
   27      C       0.2820166554     3.3221145599     0.8784108504
   28      C       0.9019520874     4.5557023951     0.8574729951
   29      C       2.1698857519     4.6943208929     0.3128378305
   30      C       2.8030210649     3.5944768655    -0.2353001119
   31      O       2.2659630170     0.4765622573    -1.7265143052
   32      H       5.8739020095     0.1726041690    -0.9898456763
   33      H       4.7562067205     0.1691573415    -2.3912622773
   34      H       4.4293504482    -0.8875184153    -1.0031758531
   35      H      -0.0376014733    -1.4988429690    -0.5670977267
   36      H       3.2644751594    -3.2645410513     1.5008543193
   37      H       3.7610128720    -1.0781849060     2.5562975006
   38      H       2.3622801954     0.8763201598     2.0629132221
   39      H      -1.0648185565     2.3276354694    -1.3887926135
   40      H      -3.4650809605     2.1423870309    -1.8434951665
   41      H      -5.5721289001     1.1969792705    -1.5003553503
   42      H      -3.7910361371    -0.8933538413     1.1577828603
   43      H      -1.4094527125    -0.6941672862     1.6134888836
   44      H      -0.6944403907     3.2081152359     1.3252005391
   45      H       0.4000809013     5.4112018876     1.2836644306
   46      H       2.6587692409     5.6559468900     0.3115297586
   47      H       3.7819794596     3.6899452823    -0.6789766768
 ----------------------------------------------------------------

    9   -1590.4670131274      6.53e-06  Convergence criterion met
 Total energy in the final basis set =    -1590.4670131274

                    Orbital Energies (a.u.)
 --------------------------------------------------------------

 Alpha MOs
 -- Occupied --
-24.7433 -24.7325 -24.7189 -24.7118 -24.7102 -19.1963 -19.1349 -14.3779
-10.4225 -10.3547 -10.3164 -10.2442 -10.2393 -10.2390 -10.2333 -10.2111
-10.2089 -10.2051 -10.2037 -10.2028 -10.2024 -10.2007 -10.1988 -10.1982
-10.1978 -10.1968 -10.1965 -10.1944 -10.1921 -10.1914 -10.1912  -1.2982
 -1.2840  -1.2231  -1.2090  -1.2022  -1.1127  -1.0208  -0.9918  -0.8784
 -0.8751  -0.8593  -0.8092  -0.7871  -0.7826  -0.7762  -0.7557  -0.7537
 -0.7319  -0.7185  -0.6930  -0.6556  -0.6508  -0.6329  -0.6259  -0.6181
 -0.6179  -0.5940  -0.5824  -0.5720  -0.5716  -0.5708  -0.5587  -0.5474
 -0.5353  -0.5243  -0.5177  -0.5076  -0.5007  -0.4922  -0.4841  -0.4802
 -0.4747  -0.4667  -0.4614  -0.4547  -0.4509  -0.4491  -0.4458  -0.4424
 -0.4420  -0.4397  -0.4308  -0.4269  -0.4227  -0.4123  -0.4107  -0.4057
 -0.4041  -0.4001  -0.3914  -0.3875  -0.3867  -0.3837  -0.3784  -0.3714
 -0.3691  -0.3641  -0.3576  -0.3550  -0.3483  -0.3321  -0.3067  -0.2967
 -0.2806  -0.2704  -0.2672  -0.2609  -0.2575  -0.2377  -0.1887

          Ground-State Mulliken Net Atomic Charges

     Atom                 Charge (a.u.)
  ----------------------------------------
      1 C                    -0.224827
      2 O                    -0.440213
      3 C                     0.545641
      4 C                     0.062001
      5 C                     0.258634
      6 N                    -0.649059
      7 C                     0.276492
      8 C                    -0.185946
      9 C                    -0.012890
     10 C                     0.776056
     11 F                    -0.263022
     12 F                    -0.266051
     13 F                    -0.271219
     14 C                    -0.167999
     15 C                    -0.136225
     16 C                    -0.169121
     17 C                     0.295275
     18 C                    -0.168997
     19 C                    -0.206405
     20 C                     0.201055
     21 C                    -0.299772
     22 C                     0.541111
     23 F                    -0.235560
     24 F                    -0.249092
     25 C                    -0.204373
     26 C                    -0.172150
     27 C                    -0.166845
     28 C                    -0.129795
     29 C                    -0.132761
     30 C                    -0.169446
     31 O                    -0.475698
     32 H                     0.163052
     33 H                     0.170652
     34 H                     0.178437
     35 H                     0.174499
     36 H                     0.147980
     37 H                     0.139564
     38 H                     0.153190
     39 H                     0.153293
     40 H                     0.132365
     41 H                     0.158922
     42 H                     0.143699
     43 H                     0.148927
     44 H                     0.153285
     45 H                     0.138661
     46 H                     0.134363
     47 H                     0.150312
  ----------------------------------------
  Sum of atomic charges =     0.000000

                    Cartesian Multipole Moments
 -----------------------------------------------------------------
    Charge (ESU x 10^10)
                 0.0000
    Dipole Moment (Debye)
         X       2.1384      Y       3.9982      Z       1.3610
       Tot       4.7340
    Quadrupole Moments (Debye-Ang)
        XX    -161.2387     XY      -0.5792     YY    -169.6386
        XZ       3.6163     YZ      -3.2443     ZZ    -170.9401

 Total job time:  205.64s(wall), 205.12s(cpu)
        *  Thank you very much for using Q-Chem.  Have a nice day.  *
