 Q-Chem 5.2, Q-Chem, Inc., Pleasanton, CA (2019)
 Q-Chem 5.2.1 for Intel X86 EM64T Linux

User input:
--------------------------------------------------------------
$molecule
0 1
C        -4.28057146330000   -1.35294633930000   -0.37406306750000
C        -3.61962441610000   -0.38297052660000    0.24300607830000
C        -2.18093717810000   -0.14906686160000    0.12791688290000
C        -1.31234436270000   -1.23172440660000    0.02334489270000
C         0.06175769140000   -1.07581250020000   -0.01393014900000
C         0.58186417960000    0.20342160540000    0.07691626410000
O         1.95951198030000    0.50634125570000    0.07097800900000
C         2.85157313300000   -0.45195533850000   -0.03033580160000
F         2.82103820940000   -1.35179659780000    0.97109750290000
F         2.76723655180000   -1.17676160630000   -1.16196504770000
F         4.06727406730000    0.08715708870000   -0.01664723040000
C        -0.25335847130000    1.30002521210000    0.18909841070000
C        -1.63637228730000    1.14711072570000    0.19543538560000
C        -2.45155567570000    2.35979007940000    0.24709786660000
C        -3.60248501830000    2.54281679490000   -0.38603531870000
H        -5.33828675130000   -1.49333737340000   -0.23211080980000
H        -3.79842436300000   -2.02746495330000   -1.06181898790000
H        -4.14894839760000    0.30158898340000    0.89359108170000
H        -1.72171885520000   -2.22945034040000   -0.00818273080000
H         0.69193989140000   -1.94631152030000   -0.09745797770000
H         0.18906180980000    2.28156633620000    0.25153414420000
H        -2.01862854130000    3.17368101000000    0.81540018980000
H        -4.03970522890000    1.78236413580000   -1.01048576740000
H        -4.13524771760000    3.47644473660000   -0.32222938060000
$end

$rem
BASIS = 6-31G*
GUI = 2
METHOD = B3LYP
PRINT_ORBITALS false
MOLDEN_FORMAT false
--------------------------------------------------------------

             Standard Nuclear Orientation (Angstroms)
    I     Atom           X                Y                Z
 ----------------------------------------------------------------
    1      C       3.8178258067    -2.1087211174     0.2369089016
    2      C       3.3368510522    -1.0052386290    -0.3193896607
    3      C       1.9636809511    -0.5256765838    -0.1703878675
    4      C       0.9165207291    -1.4406183227    -0.1081526390
    5      C      -0.4074786524    -1.0450386979    -0.0418442330
    6      C      -0.6915667437     0.3092892305    -0.0589773975
    7      O      -1.9930164911     0.8516194044    -0.0163678023
    8      C      -3.0411023471     0.0632242167     0.0493514278
    9      F      -3.1775559463    -0.7731382226    -0.9972591121
   10      F      -3.0806730464    -0.7241813287     1.1408953812
   11      F      -4.1411875741     0.8098872292     0.0819886298
   12      C       0.3252017168     1.2442737994    -0.1275845012
   13      C       1.6586889608     0.8484089482    -0.1629822761
   14      C       2.6768080883     1.8977963703    -0.1648964727
   15      C       3.8456811445     1.8392901485     0.4590486860
   16      H       4.8326638730    -2.4272174165     0.0717256004
   17      H       3.2271926383    -2.7223617747     0.8964898270
   18      H       3.9759163874    -0.3920984639    -0.9420621927
   19      H       1.1415207178    -2.4954829237    -0.1341176889
   20      H      -1.1823345522    -1.7927865264     0.0065971429
   21      H       0.0646150325     2.2907556293    -0.1328059824
   22      H       2.3926376797     2.8047629161    -0.6840021891
   23      H       4.1439435843     0.9810829624     1.0368964730
   24      H       4.5360614304     2.6653450851     0.4350335318
 ----------------------------------------------------------------

    9    -799.2938057463      3.10e-06  Convergence criterion met
 Total energy in the final basis set =     -799.2938057463

                    Orbital Energies (a.u.)
 --------------------------------------------------------------

 Alpha MOs
 -- Occupied --
-24.7297 -24.7278 -24.7277 -19.2245 -10.4821 -10.2720 -10.2116 -10.2053
-10.2039 -10.2021 -10.2015 -10.2006 -10.1946 -10.1899 -10.1839  -1.3265
 -1.2261  -1.2211  -1.1218  -0.8858  -0.8161  -0.8000  -0.7587  -0.7421
 -0.6976  -0.6530  -0.6406  -0.6159  -0.6021  -0.5958  -0.5769  -0.5478
 -0.5106  -0.4929  -0.4833  -0.4710  -0.4688  -0.4598  -0.4475  -0.4434
 -0.4389  -0.4369  -0.4185  -0.4062  -0.4032  -0.4015  -0.3983  -0.3818
 -0.3669  -0.3594  -0.3472  -0.3037  -0.2912  -0.2500  -0.2274

          Ground-State Mulliken Net Atomic Charges

     Atom                 Charge (a.u.)
  ----------------------------------------
      1 C                    -0.346217
      2 C                    -0.137660
      3 C                     0.114328
      4 C                    -0.201609
      5 C                    -0.160557
      6 C                     0.346382
      7 O                    -0.519081
      8 C                     0.971609
      9 F                    -0.276281
     10 F                    -0.276298
     11 F                    -0.253071
     12 C                    -0.240277
     13 C                     0.098981
     14 C                    -0.134850
     15 C                    -0.340887
     16 H                     0.145081
     17 H                     0.144118
     18 H                     0.151463
     19 H                     0.143544
     20 H                     0.165113
     21 H                     0.150608
     22 H                     0.140166
     23 H                     0.166802
     24 H                     0.148592
  ----------------------------------------
  Sum of atomic charges =     0.000000

                    Cartesian Multipole Moments
 -----------------------------------------------------------------
    Charge (ESU x 10^10)
                 0.0000
    Dipole Moment (Debye)
         X       2.5677      Y       0.0371      Z      -0.1038
       Tot       2.5700
    Quadrupole Moments (Debye-Ang)
        XX     -84.0803     XY       1.6168     YY     -77.5782
        XZ       0.1814     YZ      -1.7168     ZZ     -86.3564

 Total job time:  38.67s(wall), 37.63s(cpu)
        *  Thank you very much for using Q-Chem.  Have a nice day.  *
