 Q-Chem 5.2, Q-Chem, Inc., Pleasanton, CA (2019)
 Q-Chem 5.2.1 for Intel X86 EM64T Linux

User input:
--------------------------------------------------------------
$molecule
0 1
C        -4.80284488420000   -1.75752000190000    0.10644072930000
C        -3.50080311320000   -1.51911135510000    0.00944328260000
C        -2.85108333150000   -0.21260417370000   -0.01077338000000
C        -3.56372471110000    0.98861917870000   -0.02252881740000
C        -2.89506398350000    2.19787050570000   -0.04169832970000
C        -1.51397860870000    2.23537561430000   -0.04921491850000
C        -0.76939404110000    1.05173190580000   -0.03841523580000
C         0.67748682070000    1.13949455310000   -0.04749321440000
C         1.54834218820000    0.11913014650000   -0.00889026350000
C         2.97239493150000    0.31666095740000   -0.02145381370000
C         3.85198716410000   -0.67773826940000    0.01845102420000
F         3.55758907940000   -1.97326897290000    0.07459903230000
F         5.17269235660000   -0.52106474290000    0.00775985590000
C        -1.46000316140000   -0.15999398620000   -0.02161679420000
H        -5.18726665440000   -2.76298284240000    0.11503615090000
H        -5.53726309100000   -0.97431009570000    0.18350361550000
H        -2.81973922630000   -2.35910219410000   -0.05686977970000
H        -4.64215870510000    0.97806634110000   -0.02195772710000
H        -3.45657531390000    3.12085483330000   -0.05200455190000
H        -1.00092838180000    3.18629215670000   -0.06396441680000
H         1.07305860710000    2.14756985060000   -0.08695557570000
H         1.21363767470000   -0.90646276240000    0.03517847250000
H         3.36194744610000    1.32195037480000   -0.06563735200000
H        -0.90905657520000   -1.08848872150000   -0.01637654150000
$end

$rem
BASIS = 6-31G*
GUI = 2
METHOD = B3LYP
PRINT_ORBITALS false
MOLDEN_FORMAT false
--------------------------------------------------------------

             Standard Nuclear Orientation (Angstroms)
    I     Atom           X                Y                Z
 ----------------------------------------------------------------
    1      C       4.5003638939     2.1804901867     0.0454251158
    2      C       3.2237115994     1.8282358228    -0.0419576233
    3      C       2.6888077377     0.4706613342    -0.0225955478
    4      C       3.5021522513    -0.6646443388    -0.0005683046
    5      C       2.9400103730    -1.9269637382     0.0170286669
    6      C       1.5672758244    -2.0833169865     0.0133591301
    7      C       0.7236194081    -0.9682936009    -0.0090449103
    8      C      -0.7103422959    -1.1804011125    -0.0126719227
    9      C      -1.6657698090    -0.2380251634    -0.0022498817
   10      C      -3.0675430081    -0.5575855665    -0.0061902942
   11      C      -4.0294419662     0.3582194463     0.0063111775
   12      F      -3.8476176104     1.6753577938     0.0238927630
   13      F      -5.3317666507     0.0882908137     0.0028398753
   14      C       1.3074167068     0.2983082163    -0.0291280544
   15      H       4.7968578422     3.2151074813     0.0237942438
   16      H       5.2993956263     1.4659488832     0.1439419376
   17      H       2.4729458186     2.6042275449    -0.1314988962
   18      H       4.5756798815    -0.5613658124    -0.0024500775
   19      H       3.5788480101    -2.7981374397     0.0326528978
   20      H       1.1379411174    -3.0748573078     0.0274961106
   21      H      -1.0177034931    -2.2194853091    -0.0217959763
   22      H      -1.4205597188     0.8134044051     0.0110862970
   23      H      -3.3691443612    -1.5935163313    -0.0201270743
   24      H       0.6786333349     1.1757294206    -0.0499985144
 ----------------------------------------------------------------

    9    -662.9211704147      6.28e-06  Convergence criterion met
 Total energy in the final basis set =     -662.9211704147

                    Orbital Energies (a.u.)
 --------------------------------------------------------------

 Alpha MOs
 -- Occupied --
-24.7412 -24.7372 -10.3566 -10.2039 -10.1999 -10.1975 -10.1963 -10.1931
-10.1907 -10.1889 -10.1879 -10.1876 -10.1870 -10.1806  -1.2842  -1.2251
 -0.8690  -0.8289  -0.7979  -0.7731  -0.7340  -0.7213  -0.6492  -0.6235
 -0.6193  -0.5865  -0.5696  -0.5445  -0.5284  -0.5184  -0.5097  -0.4837
 -0.4618  -0.4490  -0.4411  -0.4375  -0.4313  -0.4187  -0.4176  -0.4054
 -0.3847  -0.3775  -0.3687  -0.3471  -0.3380  -0.3359  -0.3022  -0.2698
 -0.2292  -0.2046

          Ground-State Mulliken Net Atomic Charges

     Atom                 Charge (a.u.)
  ----------------------------------------
      1 C                    -0.354690
      2 C                    -0.109382
      3 C                     0.184063
      4 C                    -0.183868
      5 C                    -0.129608
      6 C                    -0.195364
      7 C                     0.189992
      8 C                    -0.203969
      9 C                    -0.105072
     10 C                    -0.226429
     11 C                     0.532408
     12 F                    -0.238423
     13 F                    -0.245103
     14 C                    -0.265948
     15 H                     0.145091
     16 H                     0.143354
     17 H                     0.127182
     18 H                     0.126900
     19 H                     0.130159
     20 H                     0.126616
     21 H                     0.122599
     22 H                     0.142671
     23 H                     0.159069
     24 H                     0.127752
  ----------------------------------------
  Sum of atomic charges =     0.000000

                    Cartesian Multipole Moments
 -----------------------------------------------------------------
    Charge (ESU x 10^10)
                 0.0000
    Dipole Moment (Debye)
         X       0.7838      Y      -0.7800      Z      -0.0088
       Tot       1.1058
    Quadrupole Moments (Debye-Ang)
        XX     -78.0703     XY       2.1280     YY     -72.2597
        XZ       0.2625     YZ      -0.1863     ZZ     -83.6661

 Total job time:  32.69s(wall), 32.57s(cpu)
        *  Thank you very much for using Q-Chem.  Have a nice day.  *
