 Q-Chem 5.2, Q-Chem, Inc., Pleasanton, CA (2019)
 Q-Chem 5.2.1 for Intel X86 EM64T Linux

User input:
--------------------------------------------------------------
$molecule
0 1
C        -2.93363096180000    0.75531201510000    0.22669569280000
C        -2.33753367830000   -0.38059392990000   -0.11298630180000
C        -0.91211031270000   -0.62650746020000   -0.07210240800000
N        -0.46239188720000   -1.86794584740000    0.03432958770000
N         0.87419714170000   -1.77572181220000    0.07385216730000
C         1.30509035640000   -0.49556960560000    0.00541428980000
N         2.64118115310000   -0.16346038200000    0.05933768850000
C         0.16952265230000    0.30263758570000   -0.09982995120000
C         0.11908217350000    1.73330802210000   -0.29818765790000
C         1.00747985470000    2.60271274580000    0.17177504680000
H        -4.00415948600000    0.86185053830000    0.17809252740000
H        -2.38306759770000    1.60857736940000    0.58389014760000
H        -2.92156086790000   -1.23975033340000   -0.41501476360000
H         1.43078086840000   -2.60722508650000    0.18870255830000
H         3.26960297070000   -0.87939707510000   -0.27719078740000
H         2.83532951930000    0.74794766490000   -0.33142423900000
H        -0.71347617600000    2.08349923960000   -0.89604724830000
H         1.81745933500000    2.30396970880000    0.81609088920000
H         0.92937258620000    3.65580287260000   -0.03934800010000
$end

$rem
BASIS = 6-31G*
GUI = 2
METHOD = B3LYP
PRINT_ORBITALS false
MOLDEN_FORMAT false
--------------------------------------------------------------

             Standard Nuclear Orientation (Angstroms)
    I     Atom           X                Y                Z
 ----------------------------------------------------------------
    1      C       2.9462381568    -0.6663836577     0.2230910335
    2      C       2.3326065774     0.4614396581    -0.1122729444
    3      C       0.9036430080     0.6854838493    -0.0693305861
    4      N       0.4351763376     1.9195695823     0.0416427598
    5      N      -0.8998170500     1.8068743940     0.0820158771
    6      C      -1.3112353896     0.5205449254     0.0096706936
    7      N      -2.6420656392     0.1679533057     0.0636418243
    8      C      -0.1637453650    -0.2599247648    -0.0992273652
    9      C      -0.0917139488    -1.6889927165    -0.3024124626
   10      C      -0.9663419959    -2.5733838361     0.1654102435
   11      H       4.0182193822    -0.7564476368     0.1732033823
   12      H       2.4090559168    -1.5291179351     0.5779071392
   13      H       2.9032097209     1.3303900336    -0.4119327069
   14      H      -1.4688884735     2.6294196519     0.2001292377
   15      H      -3.2816219587     0.8753557099    -0.2699451917
   16      H      -2.8226759380    -0.7449985303    -0.3299975603
   17      H       0.7455295939    -2.0244735894    -0.9021617587
   18      H      -1.7801834540    -2.2891558518     0.8114238651
   19      H      -0.8724065855    -3.6244535718    -0.0493013088
 ----------------------------------------------------------------

    9    -436.3495363554      4.32e-06  Convergence criterion met
 Total energy in the final basis set =     -436.3495363554

                    Orbital Energies (a.u.)
 --------------------------------------------------------------

 Alpha MOs
 -- Occupied --
-14.4022 -14.3593 -14.3313 -10.2580 -10.1989 -10.1875 -10.1813 -10.1724
-10.1706 -10.1702  -1.0476  -0.9304  -0.8298  -0.7898  -0.7560  -0.7332
 -0.6268  -0.6257  -0.5684  -0.5581  -0.5298  -0.4983  -0.4841  -0.4569
 -0.4453  -0.4294  -0.4120  -0.4043  -0.3613  -0.3451  -0.3333  -0.3042
 -0.2844  -0.2696  -0.2145  -0.1948

          Ground-State Mulliken Net Atomic Charges

     Atom                 Charge (a.u.)
  ----------------------------------------
      1 C                    -0.363751
      2 C                    -0.084533
      3 C                     0.260556
      4 N                    -0.360322
      5 N                    -0.483422
      6 C                     0.505175
      7 N                    -0.793569
      8 C                    -0.015643
      9 C                    -0.119920
     10 C                    -0.390080
     11 H                     0.140130
     12 H                     0.151369
     13 H                     0.139321
     14 H                     0.333896
     15 H                     0.321713
     16 H                     0.337624
     17 H                     0.141398
     18 H                     0.142887
     19 H                     0.137169
  ----------------------------------------
  Sum of atomic charges =     0.000000

                    Cartesian Multipole Moments
 -----------------------------------------------------------------
    Charge (ESU x 10^10)
                -0.0000
    Dipole Moment (Debye)
         X      -3.2866      Y       0.0781      Z      -1.1250
       Tot       3.4747
    Quadrupole Moments (Debye-Ang)
        XX     -47.2069     XY      -6.9696     YY     -55.6504
        XZ       1.9012     YZ       0.1972     ZZ     -61.9221

 Total job time:  19.12s(wall), 19.04s(cpu)
        *  Thank you very much for using Q-Chem.  Have a nice day.  *
