 Q-Chem 5.2, Q-Chem, Inc., Pleasanton, CA (2019)
 Q-Chem 5.2.1 for Intel X86 EM64T Linux

User input:
--------------------------------------------------------------
$molecule
0 1
C        -3.02510445590000   -2.80427630420000   -0.00849614350000
C        -2.82969634560000   -1.53692860280000    0.34797587840000
C        -1.67784722010000   -0.74604441200000    0.00748951430000
C        -0.56371123030000   -1.07362707630000   -0.72023214000000
C         0.37108248760000   -0.02874526480000   -0.84896097610000
C         1.65040938270000   -0.21213445880000   -1.60362982650000
C         2.64481403740000   -1.14674815470000   -0.89950781620000
C         3.25015956120000   -0.57565927100000    0.38546123820000
C         2.36417016560000   -0.75039343780000    1.61350012690000
C        -0.03579052650000    1.12652426570000   -0.21299949670000
C         0.64911133300000    2.38566442730000   -0.11784030710000
C         0.20291822860000    3.44784872770000    0.54803473090000
S        -1.58523651250000    0.90129973340000    0.55140027080000
H        -3.91349072220000   -3.33613501400000    0.28259842390000
H        -2.31054347960000   -3.35053343360000   -0.59933719630000
H        -3.57487309410000   -1.02469593510000    0.94296157940000
H        -0.41452451570000   -2.04364836050000   -1.15991541680000
H         2.13140082180000    0.74967522580000   -1.78357071220000
H         1.40789106310000   -0.64784165420000   -2.57765688200000
H         3.45435921020000   -1.35094400120000   -1.60497280990000
H         2.15509322250000   -2.09626958430000   -0.67477228850000
H         3.47049222780000    0.48471678620000    0.24399936910000
H         4.19960007970000   -1.08392664610000    0.57307251780000
H         1.43618598260000   -0.19653002630000    1.51321453780000
H         2.87991791780000   -0.39012641310000    2.50105294740000
H         2.12264499710000   -1.80102843300000    1.76150277740000
H         1.59834224480000    2.43883413540000   -0.63423873670000
H        -0.73607571300000    3.42799533560000    1.07620002770000
H         0.76119748330000    4.36633062690000    0.58551240740000
$end

$rem
BASIS = 6-31G*
GUI = 2
METHOD = B3LYP
PRINT_ORBITALS false
MOLDEN_FORMAT false
--------------------------------------------------------------

             Standard Nuclear Orientation (Angstroms)
    I     Atom           X                Y                Z
 ----------------------------------------------------------------
    1      C       3.7880662968    -1.7109969535    -0.1081094930
    2      C       3.2308977583    -0.5196025132    -0.3119950868
    3      C       1.8824748846    -0.1620573567     0.0374364373
    4      C       0.8948812136    -0.9062921483     0.6281660946
    5      C      -0.3162394729    -0.2139188093     0.8178876017
    6      C      -1.5057590598    -0.8746153461     1.4410707318
    7      C      -2.1452412554    -1.9470697240     0.5471829805
    8      C      -2.8494712718    -1.3979580475    -0.6963071231
    9      C      -1.9095481547    -1.1220116876    -1.8642056164
   10      C      -0.2560175591     1.0900531424     0.3699246443
   11      C      -1.2861067305     2.0911814500     0.3853579150
   12      C      -1.1592087528     3.3232205258    -0.1011500085
   13      S       1.3147928744     1.4459158152    -0.2947047997
   14      H       4.8054192051    -1.9088129996    -0.3956886376
   15      H       3.2520453834    -2.5239339240     0.3500416310
   16      H       3.8065224404     0.2708337093    -0.7762638456
   17      H       1.0309242793    -1.9306507212     0.9259934775
   18      H      -2.2613144122    -0.1344645718     1.7058768817
   19      H      -1.1771456432    -1.3572576482     2.3665188562
   20      H      -2.8792910597    -2.4817745563     1.1554607255
   21      H      -1.3835158985    -2.6664832476     0.2403570657
   22      H      -3.3852429466    -0.4822849755    -0.4366017808
   23      H      -3.5933299899    -2.1302144422    -1.0210313061
   24      H      -1.1968555295    -0.3402307594    -1.6215859054
   25      H      -2.4786052533    -0.8037875694    -2.7350933883
   26      H      -1.3563100800    -2.0212833024    -2.1274759722
   27      H      -2.2244486030     1.7860391162     0.8291330454
   28      H      -0.2402871271     3.6585305679    -0.5530488709
   29      H      -1.9676181339     4.0315270895    -0.0628696464
 ----------------------------------------------------------------

    9    -865.0557955016      3.81e-06  Convergence criterion met
 Total energy in the final basis set =     -865.0557955016

                    Orbital Energies (a.u.)
 --------------------------------------------------------------

 Alpha MOs
 -- Occupied --
-88.8997 -10.2175 -10.2123 -10.1986 -10.1952 -10.1939 -10.1884 -10.1842
-10.1831 -10.1801 -10.1783 -10.1747 -10.1595  -7.9615  -5.9256  -5.9219
 -5.9184  -0.8897  -0.8125  -0.7995  -0.7718  -0.7507  -0.7097  -0.6976
 -0.6397  -0.6229  -0.5849  -0.5675  -0.5366  -0.5253  -0.4885  -0.4636
 -0.4598  -0.4519  -0.4388  -0.4205  -0.4146  -0.3966  -0.3915  -0.3831
 -0.3784  -0.3626  -0.3605  -0.3494  -0.3375  -0.3307  -0.3246  -0.3159
 -0.3143  -0.2679  -0.2429  -0.1956

          Ground-State Mulliken Net Atomic Charges

     Atom                 Charge (a.u.)
  ----------------------------------------
      1 C                    -0.340855
      2 C                    -0.088282
      3 C                    -0.123904
      4 C                    -0.158708
      5 C                     0.161847
      6 C                    -0.346637
      7 C                    -0.251261
      8 C                    -0.251062
      9 C                    -0.450514
     10 C                    -0.215782
     11 C                    -0.050640
     12 C                    -0.378214
     13 S                     0.225734
     14 H                     0.147348
     15 H                     0.142721
     16 H                     0.138025
     17 H                     0.132990
     18 H                     0.143641
     19 H                     0.147998
     20 H                     0.131690
     21 H                     0.135766
     22 H                     0.128718
     23 H                     0.132119
     24 H                     0.173822
     25 H                     0.137728
     26 H                     0.138643
     27 H                     0.136816
     28 H                     0.155880
     29 H                     0.144373
  ----------------------------------------
  Sum of atomic charges =     0.000000

                    Cartesian Multipole Moments
 -----------------------------------------------------------------
    Charge (ESU x 10^10)
                -0.0000
    Dipole Moment (Debye)
         X      -0.4643      Y      -0.9289      Z       0.4478
       Tot       1.1309
    Quadrupole Moments (Debye-Ang)
        XX     -81.0501     XY      -2.2254     YY     -83.0174
        XZ      -2.9693     YZ      -2.4849     ZZ     -89.1583

 Total job time:  45.40s(wall), 45.26s(cpu)
        *  Thank you very much for using Q-Chem.  Have a nice day.  *
