 Q-Chem 5.2, Q-Chem, Inc., Pleasanton, CA (2019)
 Q-Chem 5.2.1 for Intel X86 EM64T Linux

User input:
--------------------------------------------------------------
$molecule
0 1
C        -3.72227371980000    0.53391463670000    0.00111403170000
C        -2.77537346270000   -0.39709853430000   -0.00140509380000
C        -1.34090320330000   -0.15981904950000   -0.00023321390000
C        -0.73444297260000    1.10330043310000    0.00069101540000
N         0.57190970870000    1.25567204110000    0.00048974870000
C         1.34091078330000    0.15983920870000   -0.00002374680000
C         2.77539306480000    0.39707838640000   -0.00090496060000
C         3.72224465160000   -0.53398751050000    0.00055891080000
C         0.73444857050000   -1.10325458770000    0.00000232060000
N        -0.57191059960000   -1.25563257010000   -0.00038369710000
H        -4.76528967140000    0.26775996680000   -0.00029063290000
H        -3.50324697920000    1.58819422570000    0.00468839060000
H        -3.03564626030000   -1.44716571450000   -0.00463247110000
H        -1.31199007720000    2.01738787910000    0.00130131970000
H         3.03572830630000    1.44709727880000   -0.00297471950000
H         3.50315526330000   -1.58823451190000    0.00290021110000
H         4.76527214930000   -0.26791450680000   -0.00028204080000
H         1.31198541750000   -2.01735118400000    0.00020830300000
$end

$rem
BASIS = 6-31G*
GUI = 2
METHOD = B3LYP
PRINT_ORBITALS false
MOLDEN_FORMAT false
--------------------------------------------------------------

             Standard Nuclear Orientation (Angstroms)
    I     Atom           X                Y                Z
 ----------------------------------------------------------------
    1      C       3.7460508763    -0.3278562482     0.0009251914
    2      C       2.7492546459     0.5495288123    -0.0012423573
    3      C       1.3300505138     0.2335124610    -0.0001702540
    4      C       0.7941620209    -1.0611261087     0.0002655055
    5      N      -0.5018013354    -1.2852987719    -0.0000021721
    6      C      -1.3300572489    -0.2335361346    -0.0000997528
    7      C      -2.7492756384    -0.5495121155    -0.0010807277
    8      C      -3.7460261197     0.3279267466     0.0007347407
    9      C      -0.7941653463     1.0610765328     0.0004147744
   10      N       0.5018041286     1.2852561437     0.0000951701
   11      H       4.7728040614    -0.0045935478    -0.0003709906
   12      H       3.5854909348    -1.3926104017     0.0040935856
   13      H       2.9512301724     1.6123511618    -0.0040651363
   14      H       1.4212337090    -1.9419767875     0.0005284871
   15      H      -2.9513162565    -1.6122876622    -0.0035550664
   16      H      -3.5854017396     1.3926495475     0.0034819932
   17      H      -4.7727953704     0.0047458128    -0.0002146621
   18      H      -1.4212272846     1.9419366005     0.0009680830
 ----------------------------------------------------------------

    9    -419.1191644749      1.50e-06  Convergence criterion met
 Total energy in the final basis set =     -419.1191644749

                    Orbital Energies (a.u.)
 --------------------------------------------------------------

 Alpha MOs
 -- Occupied --
-14.3431 -14.3431 -10.2354 -10.2354 -10.2299 -10.2299 -10.1970 -10.1970
-10.1930 -10.1930  -0.9882  -0.9136  -0.8217  -0.7910  -0.7385  -0.6773
 -0.6530  -0.5967  -0.5778  -0.5316  -0.5069  -0.4771  -0.4631  -0.4563
 -0.4348  -0.4261  -0.3974  -0.3733  -0.3694  -0.3508  -0.3144  -0.3009
 -0.2865  -0.2450  -0.2292

          Ground-State Mulliken Net Atomic Charges

     Atom                 Charge (a.u.)
  ----------------------------------------
      1 C                    -0.342431
      2 C                    -0.095495
      3 C                     0.287719
      4 C                     0.010445
      5 N                    -0.459406
      6 C                     0.287715
      7 C                    -0.095492
      8 C                    -0.342428
      9 C                     0.010438
     10 N                    -0.459407
     11 H                     0.154176
     12 H                     0.149753
     13 H                     0.150421
     14 H                     0.144821
     15 H                     0.150419
     16 H                     0.149755
     17 H                     0.154176
     18 H                     0.144819
  ----------------------------------------
  Sum of atomic charges =     0.000000

                    Cartesian Multipole Moments
 -----------------------------------------------------------------
    Charge (ESU x 10^10)
                 0.0000
    Dipole Moment (Debye)
         X      -0.0000      Y       0.0000      Z      -0.0002
       Tot       0.0002
    Quadrupole Moments (Debye-Ang)
        XX     -46.9033     XY      -4.0253     YY     -58.8577
        XZ      -0.0012     YZ      -0.0009     ZZ     -60.6063

 Total job time:  16.85s(wall), 16.78s(cpu)
        *  Thank you very much for using Q-Chem.  Have a nice day.  *
