 Q-Chem 5.2, Q-Chem, Inc., Pleasanton, CA (2019)
 Q-Chem 5.2.1 for Intel X86 EM64T Linux

User input:
--------------------------------------------------------------
$molecule
0 1
C         4.02956239980000   -0.37846623770000   -0.01316617980000
C         3.17898758670000    0.63955824400000   -0.06722584510000
C         1.72399372400000    0.55726959590000   -0.03511057650000
C         0.98354615100000    1.73392756440000    0.11832010460000
C        -0.39231404550000    1.69923666360000    0.14681468620000
C        -1.07504134930000    0.48535208970000    0.03218357340000
C        -2.48520521420000    0.55129595950000    0.01102310560000
N        -3.62321280940000    0.69835749190000   -0.02000523840000
C        -0.35618502110000   -0.71499995360000   -0.11327224260000
C        -0.99026549260000   -2.02567203530000   -0.22180196820000
C        -2.16080454220000   -2.37470463990000    0.29534045080000
C         1.03227254280000   -0.64480387260000   -0.16048791090000
H         5.09367534880000   -0.21868648120000   -0.03775354550000
H         3.71041443590000   -1.40360602260000    0.06565774640000
H         3.56984280070000    1.64817284690000   -0.12461718570000
H         1.49741051700000    2.67960411790000    0.21117998290000
H        -0.96152673020000    2.61173196340000    0.25108381020000
H        -0.39497728350000   -2.76797564380000   -0.74038670150000
H        -2.77546230120000   -1.69161656560000    0.85519751030000
H        -2.54372953460000   -3.37447527230000    0.18129317810000
H         1.58331888460000   -1.56332787290000   -0.29566391100000
$end

$rem
BASIS = 6-31G*
GUI = 2
METHOD = B3LYP
PRINT_ORBITALS false
MOLDEN_FORMAT false
--------------------------------------------------------------

             Standard Nuclear Orientation (Angstroms)
    I     Atom           X                Y                Z
 ----------------------------------------------------------------
    1      C       3.8896822871    -0.8957285682     0.0795099149
    2      C       3.1883642101     0.2271224325    -0.0211498610
    3      C       1.7355536392     0.3460363915    -0.0178532128
    4      C       1.1615329143     1.6172098537     0.0867689334
    5      C      -0.2062958773     1.7722939454     0.0868081718
    6      C      -1.0474888295     0.6604939223    -0.0084165504
    7      C      -2.4345800019     0.9183963514    -0.0615475371
    8      N      -3.5408113857     1.2190120487    -0.1209905115
    9      C      -0.4982495798    -0.6309355978    -0.1048680105
   10      C      -1.3046913301    -1.8450441772    -0.1902501642
   11      C      -2.5209115682    -2.0143628964     0.3113086171
   12      C       0.8872654090    -0.7531660312    -0.1243398538
   13      H       4.9659239380    -0.8841193681     0.0732160513
   14      H       3.4311759642    -1.8645580458     0.1801161167
   15      H       3.7152390339     1.1704194385    -0.0983422190
   16      H       1.7989624034     2.4859351712     0.1641230330
   17      H      -0.6462382647     2.7569495656     0.1533424351
   18      H      -0.8083234031    -2.6774549089    -0.6750429854
   19      H      -3.0453262201    -1.2366625757     0.8385892720
   20      H      -3.0357444514    -2.9552400181     0.2170908290
   21      H       1.3089230609    -1.7422473563    -0.2219816373
 ----------------------------------------------------------------

    9    -479.2853587893      4.70e-06  Convergence criterion met
 Total energy in the final basis set =     -479.2853587893

                    Orbital Energies (a.u.)
 --------------------------------------------------------------

 Alpha MOs
 -- Occupied --
-14.3274 -10.2327 -10.2234 -10.2209 -10.2185 -10.2147 -10.2068 -10.2065
-10.2065 -10.2017 -10.1978 -10.1904  -0.9126  -0.8870  -0.8256  -0.8020
 -0.7586  -0.7474  -0.6688  -0.6409  -0.6003  -0.5753  -0.5460  -0.5146
 -0.4827  -0.4756  -0.4513  -0.4485  -0.4316  -0.4096  -0.4048  -0.3849
 -0.3719  -0.3637  -0.3592  -0.3535  -0.3240  -0.3201  -0.2980  -0.2502
 -0.2381

          Ground-State Mulliken Net Atomic Charges

     Atom                 Charge (a.u.)
  ----------------------------------------
      1 C                    -0.342445
      2 C                    -0.120157
      3 C                     0.202049
      4 C                    -0.205206
      5 C                    -0.134146
      6 C                     0.095330
      7 C                     0.210579
      8 N                    -0.484242
      9 C                     0.174586
     10 C                    -0.124802
     11 C                    -0.340418
     12 C                    -0.277533
     13 H                     0.153809
     14 H                     0.150332
     15 H                     0.135883
     16 H                     0.141451
     17 H                     0.160523
     18 H                     0.138021
     19 H                     0.176974
     20 H                     0.152418
     21 H                     0.136994
  ----------------------------------------
  Sum of atomic charges =     0.000000

                    Cartesian Multipole Moments
 -----------------------------------------------------------------
    Charge (ESU x 10^10)
                 0.0000
    Dipole Moment (Debye)
         X       4.3303      Y      -1.2250      Z       0.2453
       Tot       4.5069
    Quadrupole Moments (Debye-Ang)
        XX     -77.5297     XY       7.0954     YY     -61.6502
        XZ      -1.7221     YZ       1.0628     ZZ     -72.3243

 Total job time:  25.91s(wall), 25.82s(cpu)
        *  Thank you very much for using Q-Chem.  Have a nice day.  *
