 Q-Chem 5.2, Q-Chem, Inc., Pleasanton, CA (2019)
 Q-Chem 5.2.1 for Intel X86 EM64T Linux

User input:
--------------------------------------------------------------
$molecule
0 1
C         5.17961621990000    0.87953042070000   -0.03610416620000
C         4.56943763100000   -0.30281965810000   -0.01289977600000
C         3.14760449160000   -0.49785400290000    0.00151783670000
C         2.47557087620000   -1.69593086710000    0.01625786640000
C         1.08332563910000   -1.56046592330000    0.02333414830000
C         0.66616590080000   -0.25055910270000    0.01523125190000
C        -0.66616589660000    0.25055550720000    0.01521882750000
C        -1.08332445920000    1.56046161040000    0.02355434260000
C        -2.47556883450000    1.69592940760000    0.01628999380000
C        -3.14760127890000    0.49785577350000    0.00126808400000
C        -4.56943335570000    0.30282987640000   -0.01328605870000
C        -5.17962783260000   -0.87953410610000   -0.03537492040000
S        -2.02725231280000   -0.83441452740000   -0.00169622590000
S         2.02725301250000    0.83441488600000   -0.00132929450000
H         6.25164656660000    0.96312709110000   -0.04728781060000
H         4.61860226320000    1.79955629890000   -0.04488624520000
H         5.14837504620000   -1.21797215620000   -0.00509518080000
H         2.98098691150000   -2.64571382110000    0.02093266250000
H         0.39413395670000   -2.38650319540000    0.03422174170000
H        -0.39413426530000    2.38649601870000    0.03472582700000
H        -2.98098432470000    2.64571200950000    0.02108259310000
H        -5.14835720710000    1.21799826000000   -0.00651273440000
H        -4.61862377210000   -1.79957501070000   -0.04309731570000
H        -6.25165672110000   -0.96312421690000   -0.04668702830000
$end

$rem
BASIS = 6-31G*
GUI = 2
METHOD = B3LYP
PRINT_ORBITALS false
MOLDEN_FORMAT false
--------------------------------------------------------------

             Standard Nuclear Orientation (Angstroms)
    I     Atom           X                Y                Z
 ----------------------------------------------------------------
    1      C       5.1788790696    -0.8838618881     0.0357196694
    2      C       4.5696893362     0.2989983491     0.0125336613
    3      C       3.1480197496     0.4952217891    -0.0018777150
    4      C       2.4769881827     1.6938604092    -0.0165989877
    5      C       1.0846301376     1.5595598294    -0.0236738297
    6      C       0.6663752018     0.2500021860    -0.0155886474
    7      C      -0.6663751690    -0.2499981339    -0.0155801555
    8      C      -1.0846289682    -1.5595548258    -0.0239333846
    9      C      -2.4769861193    -1.6938584648    -0.0166675959
   10      C      -3.1480164461    -0.4952235013    -0.0016269292
   11      C      -4.5696849072    -0.2990089241     0.0129334498
   12      C      -5.1788904077     0.8838645824     0.0350406938
   13      S      -2.0265538010     0.8361094394     0.0013537091
   14      S       2.0265546067    -0.8361098206     0.0009530878
   15      H       6.2508391638    -0.9683551363     0.0468995188
   16      H       4.6170959914    -1.8034184421     0.0444899567
   17      H       5.1493917938     1.2136665230     0.0047407446
   18      H       2.9831982522     2.6432204617    -0.0212614319
   19      H       0.3961294141     2.3861732802    -0.0345479430
   20      H      -0.3961297841    -2.3861650962    -0.0351183491
   21      H      -2.9831956662    -2.6432180303    -0.0214725471
   22      H      -5.1493738495    -1.2136927864     0.0061484467
   23      H      -4.6171171733     1.8034359352     0.0427748811
   24      H      -6.2508489948     0.9683509482     0.0463565966
 ----------------------------------------------------------------

    9   -1259.6197338389      5.24e-06  Convergence criterion met
 Total energy in the final basis set =    -1259.6197338389

                    Orbital Energies (a.u.)
 --------------------------------------------------------------

 Alpha MOs
 -- Occupied --
-88.9063 -88.9063 -10.2280 -10.2276 -10.2203 -10.2203 -10.1997 -10.1997
-10.1940 -10.1940 -10.1930 -10.1930 -10.1831 -10.1831  -7.9682  -7.9682
 -5.9323  -5.9323  -5.9287  -5.9287  -5.9249  -5.9249  -0.9027  -0.8818
 -0.8078  -0.7890  -0.7519  -0.7459  -0.7245  -0.6967  -0.6323  -0.6040
 -0.5691  -0.5525  -0.5332  -0.5323  -0.5176  -0.4672  -0.4579  -0.4568
 -0.4217  -0.4193  -0.4097  -0.3942  -0.3865  -0.3859  -0.3821  -0.3770
 -0.3601  -0.3437  -0.3342  -0.3236  -0.2902  -0.2605  -0.2543  -0.2369
 -0.1870

          Ground-State Mulliken Net Atomic Charges

     Atom                 Charge (a.u.)
  ----------------------------------------
      1 C                    -0.375235
      2 C                    -0.058182
      3 C                    -0.129784
      4 C                    -0.143582
      5 C                    -0.145606
      6 C                    -0.145449
      7 C                    -0.145449
      8 C                    -0.145606
      9 C                    -0.143583
     10 C                    -0.129783
     11 C                    -0.058181
     12 C                    -0.375236
     13 S                     0.259399
     14 S                     0.259398
     15 H                     0.147816
     16 H                     0.155526
     17 H                     0.139572
     18 H                     0.141295
     19 H                     0.154232
     20 H                     0.154232
     21 H                     0.141295
     22 H                     0.139571
     23 H                     0.155526
     24 H                     0.147816
  ----------------------------------------
  Sum of atomic charges =     0.000000

                    Cartesian Multipole Moments
 -----------------------------------------------------------------
    Charge (ESU x 10^10)
                 0.0000
    Dipole Moment (Debye)
         X       0.0000      Y      -0.0000      Z      -0.0059
       Tot       0.0059
    Quadrupole Moments (Debye-Ang)
        XX     -82.7701     XY       4.2211     YY     -86.0693
        XZ      -0.0011     YZ      -0.0018     ZZ    -101.9181

 Total job time:  65.82s(wall), 37.97s(cpu)
        *  Thank you very much for using Q-Chem.  Have a nice day.  *
