 Q-Chem 5.2, Q-Chem, Inc., Pleasanton, CA (2019)
 Q-Chem 5.2.1 for Intel X86 EM64T Linux

User input:
--------------------------------------------------------------
$molecule
0 1
C         3.88073032510000   -1.10940660830000   -2.47156965500000
O         3.13471139570000   -1.67661032860000   -1.40288151770000
C         1.80972124480000   -1.50850130140000   -1.42089744490000
C         1.17145979720000   -2.16493817130000   -0.24666952680000
C         0.15399218280000   -1.52376915310000    0.47479392270000
N        -0.19552044930000   -0.19282436040000    0.21129530510000
C         0.79606490370000    0.74307561180000   -0.06767118500000
C         2.04768418890000    0.63390226160000    0.54112526760000
C         3.04459810950000    1.54105000970000    0.22652195080000
C         4.40679540030000    1.39832424650000    0.83969887430000
F         4.42800284500000    0.60851594700000    1.92166318590000
F         5.29529579870000    0.86720380020000   -0.02837177070000
F         4.92915934670000    2.57715234370000    1.21908082500000
C         2.82290033410000    2.57120166360000   -0.67858051430000
C         1.57347673900000    2.68550759030000   -1.26541805050000
C         0.57072538230000    1.78441985120000   -0.97022734890000
C        -1.54499429780000    0.17185149450000    0.20981305390000
C        -1.94824657470000    1.41621548690000    0.69616987890000
C        -3.28163225220000    1.76069877640000    0.70058058700000
C        -4.26091309040000    0.88091514590000    0.22995827970000
C        -5.64665423750000    1.31113739840000    0.27025575740000
C        -6.73156433500000    0.63649350300000   -0.08336017770000
F        -6.80803065090000   -0.60092190950000   -0.55979335320000
F        -7.96149006160000    1.14180859350000    0.00202037720000
C        -3.84890933080000   -0.36382004820000   -0.25392762670000
C        -2.51558062860000   -0.71093818150000   -0.26498646280000
C        -0.48707368670000   -2.21790333600000    1.50030333630000
C        -0.12137856880000   -3.51330121870000    1.80814604690000
C         0.90574799630000   -4.13470111870000    1.11428028290000
C         1.54910468040000   -3.45856102850000    0.09468329870000
O         1.21134663280000   -0.92041956130000   -2.28766937530000
H         4.05620615100000   -1.86791778490000   -3.23654112540000
H         4.82600221030000   -0.77075238720000   -2.05312138020000
H         3.32976964750000   -0.27401174530000   -2.90801978400000
H         2.24055767920000   -0.15637120530000    1.25095903600000
H         3.61455195150000    3.26453646370000   -0.91434279210000
H         1.38775963750000    3.47590729720000   -1.97584372750000
H        -0.38798332400000    1.86031603460000   -1.45868062880000
H        -1.20959983190000    2.10571277390000    1.07714789140000
H        -3.57664601500000    2.72583404680000    1.08520721850000
H        -5.83051073310000    2.31032637170000    0.63836209650000
H        -4.57118240740000   -1.06585283050000   -0.63600532270000
H        -2.21119421720000   -1.67017224270000   -0.65509871190000
H        -1.26938285030000   -1.72440346890000    2.05757762920000
H        -0.62933222920000   -4.03479144420000    2.60518392400000
H         1.20109822210000   -5.14119977990000    1.36595467480000
H         2.34154589080000   -3.93334691150000   -0.46273347940000
$end

$rem
BASIS = 6-31G*
GUI = 2
METHOD = B3LYP
PRINT_ORBITALS false
MOLDEN_FORMAT false
--------------------------------------------------------------

             Standard Nuclear Orientation (Angstroms)
    I     Atom           X                Y                Z
 ----------------------------------------------------------------
    1      C       3.9083295356     1.0045394266     2.4358344460
    2      O       3.1554859347     1.6002749631     1.3876530107
    3      C       1.8294154642     1.4425591352     1.4167553046
    4      C       1.1839150847     2.1288675006     0.2637555947
    5      C       0.1533567160     1.5113851694    -0.4597861004
    6      N      -0.2043461967     0.1780323970    -0.2205714413
    7      C       0.7823823695    -0.7715667769     0.0276234792
    8      C       2.0281741902    -0.6596641605    -0.5925243419
    9      C       3.0208578460    -1.5813164690    -0.3081551617
   10      C       4.3774491943    -1.4366728964    -0.9331961144
   11      F       4.3934701574    -0.6243228596    -1.9984305598
   12      F       5.2797297175    -0.9312715092    -0.0639850775
   13      F       4.8858181825    -2.6113931604    -1.3431030710
   14      C       2.8004400004    -2.6285781862     0.5774133986
   15      C       1.5565621405    -2.7451647412     1.1754760237
   16      C       0.5582021874    -1.8299347737     0.9104506327
   17      C      -1.5567154463    -0.1756512190    -0.2118733603
   18      C      -1.9755849800    -1.4061278502    -0.7198819029
   19      C      -3.3117634184    -1.7396295807    -0.7168269633
   20      C      -4.2785057049    -0.8621086778    -0.2169650133
   21      C      -5.6681391989    -1.2801431777    -0.2510165845
   22      C      -6.7434820936    -0.6043754729     0.1287125330
   23      F      -6.8044519358     0.6232499623     0.6319530726
   24      F      -7.9784305838    -1.0977906207     0.0462856484
   25      C      -3.8509092839     0.3687205137     0.2884844636
   26      C      -2.5146935781     0.7047160610     0.2921319670
   27      C      -0.4930167192     2.2322539290    -1.4632834268
   28      C      -0.1199111435     3.5308770966    -1.7477580765
   29      C       0.9198404975     4.1291016958    -1.0523298855
   30      C       1.5685901548     3.4263290762    -0.0543891146
   31      O       1.2356222455     0.8411163568     2.2774887630
   32      H       4.0984257646     1.7452318051     3.2146479956
   33      H       4.8461415251     0.6671791626     1.9999201176
   34      H       3.3552064557     0.1645775485     2.8606283517
   35      H       2.2198952169     0.1438786124    -1.2876202882
   36      H       3.5888046394    -3.3331401392     0.7897408120
   37      H       1.3720022154    -3.5489042206     1.8710819928
   38      H      -0.3957378173    -1.9083922314     1.4077554845
   39      H      -1.2468942106    -2.0933610753    -1.1234534856
   40      H      -3.6189721971    -2.6939806536    -1.1184407728
   41      H      -5.8643052133    -2.2697894073    -0.6380609322
   42      H      -4.5631115325     1.0683301028     0.6932389203
   43      H      -2.1981025471     1.6529753414     0.6990018414
   44      H      -1.2854232024     1.7570205306    -2.0221658529
   45      H      -0.6321389447     4.0732290181    -2.5279602469
   46      H       1.2208116813     5.1382800017    -1.2859680754
   47      H       2.3709733766     3.8827682218     0.5041291419
 ----------------------------------------------------------------

    9   -1590.4675298707      5.61e-06  Convergence criterion met
 Total energy in the final basis set =    -1590.4675298707

                    Orbital Energies (a.u.)
 --------------------------------------------------------------

 Alpha MOs
 -- Occupied --
-24.7446 -24.7338 -24.7220 -24.7181 -24.7159 -19.1942 -19.1332 -14.3780
-10.4268 -10.3559 -10.3158 -10.2431 -10.2391 -10.2345 -10.2340 -10.2125
-10.2076 -10.2062 -10.2038 -10.2019 -10.2011 -10.1996 -10.1992 -10.1978
-10.1975 -10.1959 -10.1951 -10.1949 -10.1930 -10.1927 -10.1915  -1.3027
 -1.2852  -1.2244  -1.2130  -1.2076  -1.1102  -1.0195  -0.9917  -0.8779
 -0.8754  -0.8594  -0.8094  -0.7890  -0.7841  -0.7696  -0.7582  -0.7561
 -0.7304  -0.7179  -0.6953  -0.6563  -0.6501  -0.6342  -0.6255  -0.6192
 -0.6177  -0.5955  -0.5800  -0.5773  -0.5739  -0.5723  -0.5613  -0.5487
 -0.5347  -0.5198  -0.5189  -0.5084  -0.5035  -0.4924  -0.4811  -0.4782
 -0.4732  -0.4693  -0.4606  -0.4554  -0.4539  -0.4519  -0.4468  -0.4431
 -0.4428  -0.4410  -0.4320  -0.4263  -0.4213  -0.4152  -0.4127  -0.4083
 -0.4073  -0.4026  -0.3922  -0.3910  -0.3857  -0.3836  -0.3775  -0.3722
 -0.3675  -0.3653  -0.3545  -0.3517  -0.3493  -0.3323  -0.3044  -0.2968
 -0.2801  -0.2695  -0.2666  -0.2601  -0.2580  -0.2383  -0.1888

          Ground-State Mulliken Net Atomic Charges

     Atom                 Charge (a.u.)
  ----------------------------------------
      1 C                    -0.237488
      2 O                    -0.437337
      3 C                     0.539666
      4 C                     0.067972
      5 C                     0.255987
      6 N                    -0.649864
      7 C                     0.287678
      8 C                    -0.234500
      9 C                    -0.003635
     10 C                     0.776960
     11 F                    -0.263846
     12 F                    -0.264535
     13 F                    -0.267443
     14 C                    -0.166514
     15 C                    -0.144241
     16 C                    -0.134596
     17 C                     0.292474
     18 C                    -0.173765
     19 C                    -0.206504
     20 C                     0.200851
     21 C                    -0.300346
     22 C                     0.541072
     23 F                    -0.235881
     24 F                    -0.249212
     25 C                    -0.206119
     26 C                    -0.167988
     27 C                    -0.166177
     28 C                    -0.129155
     29 C                    -0.131811
     30 C                    -0.168182
     31 O                    -0.474785
     32 H                     0.159361
     33 H                     0.174851
     34 H                     0.186944
     35 H                     0.169260
     36 H                     0.146960
     37 H                     0.140067
     38 H                     0.159128
     39 H                     0.148628
     40 H                     0.131854
     41 H                     0.158720
     42 H                     0.143150
     43 H                     0.154415
     44 H                     0.153218
     45 H                     0.138871
     46 H                     0.134884
     47 H                     0.150952
  ----------------------------------------
  Sum of atomic charges =     0.000000

                    Cartesian Multipole Moments
 -----------------------------------------------------------------
    Charge (ESU x 10^10)
                 0.0000
    Dipole Moment (Debye)
         X      -0.4384      Y       0.4136      Z      -0.1830
       Tot       0.6299
    Quadrupole Moments (Debye-Ang)
        XX    -183.5437     XY       6.2136     YY    -155.7008
        XZ      11.8022     YZ      -4.4301     ZZ    -171.4884

 Total job time:  208.62s(wall), 208.10s(cpu)
        *  Thank you very much for using Q-Chem.  Have a nice day.  *
