 Q-Chem 5.2, Q-Chem, Inc., Pleasanton, CA (2019)
 Q-Chem 5.2.1 for Intel X86 EM64T Linux

User input:
--------------------------------------------------------------
$molecule
0 1
C         5.21123145620000    4.25833789430000    0.91713263160000
C         4.08075897880000    3.62176946070000    1.21123599720000
C         3.21682300720000    2.98890198550000    0.25440954870000
C         2.04340384210000    2.32754700880000    0.51207810810000
C         1.40593587550000    1.81138764510000   -0.63094248970000
C         0.13382943880000    1.02384231050000   -0.57498195850000
C         0.38812401430000   -0.48448263680000   -0.70678910720000
C         1.23724231440000   -1.06683003920000    0.42324041970000
C         0.60825371260000   -0.98897461870000    1.81664838660000
C        -0.77000659950000   -1.63990572280000    1.94233301730000
C        -0.76308268920000   -3.13278160860000    1.62000145060000
C        -2.08796170630000   -3.82185403190000    1.94921561650000
C        -3.24237929270000   -3.36458761150000    1.05951936520000
C        -4.52379853510000   -4.14076884520000    1.35590996060000
C        -5.68274438290000   -3.77705992550000    0.42708685620000
C        -6.20542683660000   -2.35637122850000    0.63079186720000
C        -7.43357862970000   -2.08209312740000   -0.22881873210000
C         2.10765919560000    2.08141163330000   -1.78739722530000
C         1.75864457920000    1.72341479000000   -3.13401117620000
C         2.51750934090000    1.94700533610000   -4.20406339800000
S         3.56089552650000    2.97949423110000   -1.44794263800000
H         5.81834986820000    4.71563647060000    1.67798309610000
H         5.56024809940000    4.33900892410000   -0.09912142190000
H         3.74379086630000    3.54985791580000    2.23809671700000
H         1.64732439160000    2.22183680380000    1.50749305730000
H        -0.53153111650000    1.33893064640000   -1.38272364590000
H        -0.37155039350000    1.22926798110000    0.36928865590000
H         0.90652896400000   -0.67011554700000   -1.65071010810000
H        -0.57201505250000   -1.00102780560000   -0.75148548480000
H         2.19409492480000   -0.53923751820000    0.45060894250000
H         1.45097859870000   -2.11127244960000    0.18789757910000
H         0.52435151580000    0.05696616310000    2.11796906140000
H         1.29146059700000   -1.47167306880000    2.52044557310000
H        -1.47602062810000   -1.12333827070000    1.29166941090000
H        -1.11681377490000   -1.50595018450000    2.97064300020000
H         0.03311115970000   -3.61087283420000    2.19650225450000
H        -0.54194092570000   -3.28246922800000    0.56168821100000
H        -2.34329729770000   -3.63538155370000    2.99528199840000
H        -1.95962444630000   -4.90095869210000    1.83019702830000
H        -2.96836603560000   -3.51025469770000    0.01148444480000
H        -3.42056816980000   -2.30087688160000    1.21652822750000
H        -4.82232641610000   -3.96135205720000    2.39168961960000
H        -4.31757566520000   -5.20952428600000    1.25433857670000
H        -6.50327437870000   -4.47735977990000    0.60341606070000
H        -5.36463702330000   -3.89874137160000   -0.61125195650000
H        -5.42645125740000   -1.63560248360000    0.37702496050000
H        -6.46098036320000   -2.21501531820000    1.68358955980000
H        -7.19709306880000   -2.21097772330000   -1.28297546950000
H        -7.78789969550000   -1.06473572690000   -0.07875313780000
H        -8.23958079720000   -2.76704355280000    0.02592147350000
H         0.79796750400000    1.23830651200000   -3.24748978360000
H         3.48064590470000    2.42274964140000   -4.12067442110000
H         2.20112908180000    1.66073474370000   -5.19139842820000
$end

$rem
BASIS = 6-31G*
GUI = 2
METHOD = B3LYP
PRINT_ORBITALS false
MOLDEN_FORMAT false
--------------------------------------------------------------

             Standard Nuclear Orientation (Angstroms)
    I     Atom           X                Y                Z
 ----------------------------------------------------------------
    1      C      -6.6473099874    -1.5930045001    -1.2348763935
    2      C      -5.3294153055    -1.5863958427    -1.4159678498
    3      C      -4.4284575253    -0.6009827109    -0.8871394329
    4      C      -3.0678877834    -0.5530413531    -1.0522080013
    5      C      -2.4452960804     0.5381280865    -0.4189538584
    6      C      -0.9651637745     0.7626264658    -0.4395173262
    7      C      -0.3014954982     0.3247558299     0.8738359118
    8      C      -0.4481939477    -1.1678190468     1.1701413598
    9      C       0.2312121943    -2.1009446266     0.1646773692
   10      C       1.7265063911    -1.8536615676    -0.0403976666
   11      C       2.5461225999    -2.0229610980     1.2371746128
   12      C       4.0546519549    -1.9847966369     0.9894048798
   13      C       4.5559176964    -0.6159070832     0.5331089135
   14      C       6.0758710844    -0.5926752824     0.3863371547
   15      C       6.6293543059     0.7839905624     0.0167434710
   16      C       6.2415849971     1.2405968247    -1.3883169324
   17      C       6.9137423710     2.5582132688    -1.7552052765
   18      C      -3.3482781979     1.3407330977     0.2467522473
   19      C      -3.0803722343     2.5403564289     0.9900370734
   20      C      -3.9872827632     3.2313782234     1.6762457795
   21      S      -4.9725851107     0.7341786557     0.0812337741
   22      H      -7.2734353744    -2.3584015778    -1.6576558828
   23      H      -7.1366687820    -0.8275566115    -0.6554713249
   24      H      -4.8530276347    -2.3632338224    -2.0014072211
   25      H      -2.5299059537    -1.2891043849    -1.6246512420
   26      H      -0.7545427940     1.8226330928    -0.6021725281
   27      H      -0.5317818164     0.2074891717    -1.2721385711
   28      H      -0.7567770848     0.8802981597     1.6974143974
   29      H       0.7557375409     0.5928014035     0.8407666418
   30      H      -1.5121360101    -1.4162338481     1.2015610467
   31      H      -0.0419137624    -1.3611966987     2.1648628762
   32      H      -0.2681009914    -2.0161734581    -0.8024451868
   33      H       0.0880611560    -3.1280546977     0.5105857420
   34      H       1.8764675503    -0.8533745586    -0.4473355245
   35      H       2.0899129347    -2.5663354291    -0.7858320201
   36      H       2.2900133691    -2.9835070261     1.6917168261
   37      H       2.2866660565    -1.2387768744     1.9506690989
   38      H       4.3175897626    -2.7337184084     0.2382703950
   39      H       4.5679099275    -2.2552276579     1.9159770900
   40      H       4.2538719097     0.1394467385     1.2631009040
   41      H       4.0973953756    -0.3630837478    -0.4227787462
   42      H       6.3755105754    -1.3175329228    -0.3745480917
   43      H       6.5241635563    -0.9062532655     1.3327966195
   44      H       7.7199329701     0.7498117859     0.0819457464
   45      H       6.2798442291     1.5204885679     0.7444518951
   46      H       5.1593040506     1.3646065053    -1.4515445487
   47      H       6.5323114609     0.4724524488    -2.1088059475
   48      H       6.6305743225     3.3388784855    -1.0522395859
   49      H       6.6209148386     2.8735770056    -2.7541431777
   50      H       7.9965441195     2.4548559704    -1.7318216518
   51      H      -2.0523840549     2.8776204324     0.9655182327
   52      H      -5.0166115818     2.9164135151     1.7231267099
   53      H      -3.7289410779     4.1279989776     2.2112304326
 ----------------------------------------------------------------

    9   -1179.5624164969      1.69e-06  Convergence criterion met
 Total energy in the final basis set =    -1179.5624164969

                    Orbital Energies (a.u.)
 --------------------------------------------------------------

 Alpha MOs
 -- Occupied --
-88.8970 -10.2155 -10.2119 -10.1966 -10.1955 -10.1917 -10.1870 -10.1856
-10.1805 -10.1794 -10.1784 -10.1734 -10.1731 -10.1725 -10.1719 -10.1716
-10.1712 -10.1710 -10.1710 -10.1708 -10.1668  -7.9590  -5.9232  -5.9195
 -5.9157  -0.8888  -0.8196  -0.8104  -0.8023  -0.7880  -0.7725  -0.7597
 -0.7356  -0.7171  -0.7035  -0.6796  -0.6549  -0.6279  -0.6188  -0.6038
 -0.5784  -0.5690  -0.5621  -0.5481  -0.5443  -0.5086  -0.4931  -0.4811
 -0.4695  -0.4651  -0.4621  -0.4540  -0.4398  -0.4333  -0.4258  -0.4242
 -0.4178  -0.4104  -0.4017  -0.3960  -0.3901  -0.3883  -0.3850  -0.3780
 -0.3695  -0.3632  -0.3570  -0.3554  -0.3495  -0.3472  -0.3397  -0.3317
 -0.3290  -0.3250  -0.3212  -0.3177  -0.3127  -0.3109  -0.3063  -0.3016
 -0.2943  -0.2673  -0.2437  -0.1952

          Ground-State Mulliken Net Atomic Charges

     Atom                 Charge (a.u.)
  ----------------------------------------
      1 C                    -0.374438
      2 C                    -0.055536
      3 C                    -0.134816
      4 C                    -0.183793
      5 C                     0.157041
      6 C                    -0.351923
      7 C                    -0.261846
      8 C                    -0.265970
      9 C                    -0.264516
     10 C                    -0.260758
     11 C                    -0.255731
     12 C                    -0.254468
     13 C                    -0.259646
     14 C                    -0.254045
     15 C                    -0.246373
     16 C                    -0.251107
     17 C                    -0.441066
     18 C                    -0.202254
     19 C                    -0.055386
     20 C                    -0.376975
     21 S                     0.240034
     22 H                     0.146184
     23 H                     0.156687
     24 H                     0.137302
     25 H                     0.136397
     26 H                     0.145925
     27 H                     0.147788
     28 H                     0.140476
     29 H                     0.134874
     30 H                     0.146133
     31 H                     0.135574
     32 H                     0.125035
     33 H                     0.129802
     34 H                     0.137251
     35 H                     0.126353
     36 H                     0.126254
     37 H                     0.133160
     38 H                     0.126534
     39 H                     0.125828
     40 H                     0.124544
     41 H                     0.139892
     42 H                     0.126555
     43 H                     0.125804
     44 H                     0.125415
     45 H                     0.125429
     46 H                     0.134782
     47 H                     0.129204
     48 H                     0.141508
     49 H                     0.140492
     50 H                     0.141822
     51 H                     0.138780
     52 H                     0.157029
     53 H                     0.144763
  ----------------------------------------
  Sum of atomic charges =     0.000000

                    Cartesian Multipole Moments
 -----------------------------------------------------------------
    Charge (ESU x 10^10)
                 0.0000
    Dipole Moment (Debye)
         X       1.1611      Y      -0.4129      Z      -0.2175
       Tot       1.2513
    Quadrupole Moments (Debye-Ang)
        XX    -143.0894     XY       2.4912     YY    -136.8169
        XZ       0.3982     YZ       5.2973     ZZ    -140.0842

 Total job time:  117.03s(wall), 116.72s(cpu)
        *  Thank you very much for using Q-Chem.  Have a nice day.  *
