 Q-Chem 5.4, Q-Chem, Inc., Pleasanton, CA (2021)
 Q-Chem 5.4.2 for Intel X86 EM64T Linux

User input:
--------------------------------------------------------------
$molecule
0 1
C           -3.80028785450000       -1.13641708540000       -0.62427732760000
C           -2.49405084960000       -1.10497811340000       -0.84998607660000
C           -1.56938417200000       -0.10319432820000       -0.32159384110000
C           -1.98596588500000        1.19660825230000       -0.05114054540000
C           -1.08196431620000        2.13359742980000        0.41530694420000
Cl          -1.62135661690000        3.73890086180000        0.76222756210000
C            0.24954305280000        1.81010836590000        0.59783480250000
C            0.69359141070000        0.52100768470000        0.31404516710000
C            2.10524998110000        0.19884651810000        0.51531810900000
C            2.84881973810000       -0.55274280510000       -0.28005970920000
F            2.51686810200000       -1.09420702230000       -1.43643370470000
F            4.13009859960000       -0.82206144020000       -0.02666256530000
C           -0.22137471510000       -0.44480594120000       -0.12423542410000
O            0.21817982720000       -1.72460615520000       -0.34781748170000
C           -0.17324551470000       -2.68140230480000        0.62931983800000
C            0.25566355920000       -4.05293080450000        0.13845591210000
H           -4.42626085480000       -1.89941903070000       -1.05365744030000
H           -4.29261853770000       -0.41591820760000        0.00716148610000
H           -2.02838165080000       -1.86586906270000       -1.46321740220000
H           -3.01224496650000        1.47778704070000       -0.22376630160000
H            0.94781541510000        2.55480672450000        0.94575831260000
H            2.59448072690000        0.62141891260000        1.38006802260000
H           -1.26009919510000       -2.64598120600000        0.78491947860000
H            0.31806530040000       -2.44350547270000        1.58512736330000
H           -0.24493636000000       -4.28709135250000       -0.79686461160000
H            0.00291784740000       -4.80619862980000        0.87904384240000
H            1.32809218960000       -4.06415101450000       -0.03415268960000
$end

$rem
BASIS = 6-31G*
GUI = 2
METHOD = B3LYP
PRINT_ORBITALS false
MOLDEN_FORMAT false
$end
--------------------------------------------------------------

             Standard Nuclear Orientation (Angstroms)
    I     Atom           X                Y                Z
 ----------------------------------------------------------------
    1      C       1.6801056834    -3.5423209911     0.3940581572
    2      C       0.8031379629    -2.5805598731     0.6472994067
    3      C       0.9695082949    -1.1714001722     0.2946417518
    4      C       2.2302407878    -0.5878556025     0.2158929514
    5      C       2.3567982559     0.7559210773    -0.0857496481
    6      Cl      3.9318571780     1.4596809516    -0.1962417712
    7      C       1.2428113586     1.5487171952    -0.2891727920
    8      C      -0.0298432516     0.9910481428    -0.1950901757
    9      C      -1.1948514646     1.8462390481    -0.4152785337
   10      C      -2.3249504661     1.8069136308     0.2715534154
   11      F      -2.6139583489     1.0685685677     1.3260187852
   12      F      -3.3584038055     2.6066047585     0.0053083099
   13      C      -0.1673977944    -0.3766660784     0.0741409605
   14      O      -1.4242384629    -0.9245241817     0.1100401597
   15      C      -1.7666379003    -1.7345534749    -1.0080319226
   16      C      -3.1101468432    -2.3820149930    -0.7220631900
   17      H       1.4981152402    -4.5607538603     0.6907994864
   18      H       2.6023251203    -3.3565746485    -0.1305681063
   19      H      -0.1290092497    -2.8106791843     1.1473015815
   20      H       3.1090698233    -1.1815329706     0.4090680654
   21      H       1.3547144695     2.5991164255    -0.5067730147
   22      H      -1.1276917365     2.5885012804    -1.1964589954
   23      H      -0.9949515579    -2.4977464622    -1.1776004278
   24      H      -1.8273962202    -1.1024709867    -1.9071033323
   25      H      -3.0383739578    -3.0161259623     0.1571454627
   26      H      -3.4197904282    -2.9820335689    -1.5728639028
   27      H      -3.8560641752    -1.6154501746    -0.5323041251
 ----------------------------------------------------------------

    9   -1198.9421197925      4.96e-06  Convergence criterion met
 Total energy in the final basis set =    -1198.9421197925

                    Orbital Energies (a.u.)
 --------------------------------------------------------------

 Alpha MOs
 -- Occupied --
******** -24.7368 -24.7325 -19.1704 -10.3574 -10.2508 -10.2500 -10.2420
-10.2147 -10.2082 -10.2034 -10.2028 -10.2019 -10.1985 -10.1894 -10.1821
 -9.4658  -7.2296  -7.2201  -7.2197  -1.2826  -1.2211  -1.0639  -0.9005
 -0.8521  -0.8224  -0.7813  -0.7736  -0.7392  -0.7173  -0.6541  -0.6426
 -0.6241  -0.5972  -0.5760  -0.5631  -0.5397  -0.5268  -0.5154  -0.5003
 -0.4798  -0.4694  -0.4620  -0.4530  -0.4395  -0.4357  -0.4328  -0.4284
 -0.4122  -0.4067  -0.3965  -0.3926  -0.3864  -0.3714  -0.3617  -0.3464
 -0.3354  -0.3149  -0.3088  -0.2826  -0.2711  -0.2332  -0.2280

          Ground-State Mulliken Net Atomic Charges

     Atom                 Charge (a.u.)
  ----------------------------------------
      1 C                    -0.344896
      2 C                    -0.127647
      3 C                     0.151895
      4 C                    -0.205256
      5 C                    -0.061304
      6 Cl                   -0.017249
      7 C                    -0.204609
      8 C                     0.153714
      9 C                    -0.331808
     10 C                     0.579587
     11 F                    -0.221907
     12 F                    -0.250799
     13 C                     0.223840
     14 O                    -0.534599
     15 C                    -0.037976
     16 C                    -0.456932
     17 H                     0.149352
     18 H                     0.148251
     19 H                     0.155513
     20 H                     0.152375
     21 H                     0.153094
     22 H                     0.169041
     23 H                     0.145759
     24 H                     0.136536
     25 H                     0.160391
     26 H                     0.151025
     27 H                     0.164607
  ----------------------------------------
  Sum of atomic charges =     0.000000

                    Cartesian Multipole Moments
 -----------------------------------------------------------------
    Charge (ESU x 10^10)
                 0.0000
    Dipole Moment (Debye)
         X      -0.7661      Y      -1.6070      Z      -1.3359
       Tot       2.2258
    Quadrupole Moments (Debye-Ang)
        XX    -103.1138     XY      -0.4649     YY     -89.9837
        XZ       2.8463     YZ      -0.9442     ZZ     -98.3012

 Total job time:  71.01s(wall), 67.44s(cpu)
        *  Thank you very much for using Q-Chem.  Have a nice day.  *
