 Q-Chem 5.2, Q-Chem, Inc., Pleasanton, CA (2019)
 Q-Chem 5.2.1 for Intel X86 EM64T Linux

User input:
--------------------------------------------------------------
$molecule
0 1
C        -4.05016947230000   -0.01345987490000    0.00533122050000
C        -3.03845242800000   -0.87189197660000   -0.00028437060000
C        -1.63486608230000   -0.47535759700000   -0.00172567220000
C        -0.62076755970000   -1.46289696850000   -0.00367699640000
C         0.71516344540000   -1.11867154250000   -0.00260986780000
C         1.75216354650000   -2.13365244190000   -0.00245449260000
C         3.05558844490000   -1.87622501600000    0.00715490960000
C         0.99702876850000    0.26831456160000   -0.00106850840000
N         2.13129204540000    0.94515560400000   -0.00045879230000
C         1.78716492090000    2.24594170650000   -0.00008334310000
C         0.42101014350000    2.40165196820000   -0.00020818790000
N        -0.08720917770000    1.14690829480000   -0.00077289780000
N        -1.36168500700000    0.80994920850000   -0.00052315390000
H        -5.07466882240000   -0.34296098510000    0.00700664600000
H        -3.86874475310000    1.04724032390000    0.00758568540000
H        -3.21447797340000   -1.93931392150000   -0.00289957600000
H        -0.90692127620000   -2.50397107850000   -0.00539121340000
H         1.38748363230000   -3.15378775820000   -0.00979505600000
H         3.41521909600000   -0.86170397820000    0.01433920500000
H         3.78325100230000   -2.67009851530000    0.00844335770000
H         2.54116522820000    3.00843488800000    0.00033558200000
H        -0.20312302620000    3.26965631580000    0.00029714680000
$end

$rem
BASIS = 6-31G*
GUI = 2
METHOD = B3LYP
PRINT_ORBITALS false
MOLDEN_FORMAT false
--------------------------------------------------------------

             Standard Nuclear Orientation (Angstroms)
    I     Atom           X                Y                Z
 ----------------------------------------------------------------
    1      C       4.0382490424     0.0340850817     0.0053090233
    2      C       3.0173647461     0.8815947201    -0.0002813577
    3      C       1.6181211556     0.4699986021    -0.0017751483
    4      C       0.5934678901     1.4465822566    -0.0036942010
    5      C      -0.7386864990     1.0880190424    -0.0026752023
    6      C      -1.7865349866     2.0917963939    -0.0024865437
    7      C      -3.0871181692     1.8203750461     0.0070802204
    8      C      -1.0056292616    -0.3019163239    -0.0012164143
    9      N      -2.1325528499    -0.9909085415    -0.0006687515
   10      C      -1.7744657084    -2.2879211110    -0.0003574585
   11      C      -0.4067163687    -2.4289399399    -0.0004610582
   12      N       0.0879885437    -1.1688067333    -0.0009455414
   13      N       1.3587693715    -0.8181699874    -0.0006494096
   14      H       5.0591479507     0.3745776389     0.0070249687
   15      H       3.8682343849    -1.0285038012     0.0075010867
   16      H       3.1819083089     1.9508469545    -0.0028339092
   17      H       0.8684164118     2.4906717050    -0.0053448116
   18      H      -1.4328396480     3.1157925115    -0.0097629400
   19      H      -3.4358248712     0.8020471572     0.0142007683
   20      H      -3.8232707017     2.6063822387     0.0083965228
   21      H      -2.5202277580    -3.0584737219     0.0000029956
   22      H       0.2267094214    -3.2901864567     0.0000100778
 ----------------------------------------------------------------

    9    -550.6676219556      7.10e-06  Convergence criterion met
 Total energy in the final basis set =     -550.6676219556

                    Orbital Energies (a.u.)
 --------------------------------------------------------------

 Alpha MOs
 -- Occupied --
-14.4406 -14.3705 -14.3141 -10.2479 -10.2403 -10.2241 -10.2127 -10.2090
-10.2048 -10.1983 -10.1968 -10.1885 -10.1830  -1.0813  -0.9642  -0.8705
 -0.8315  -0.7840  -0.7637  -0.7421  -0.6748  -0.6425  -0.6204  -0.5907
 -0.5871  -0.5209  -0.5032  -0.4853  -0.4837  -0.4786  -0.4476  -0.4401
 -0.4304  -0.4204  -0.3939  -0.3807  -0.3705  -0.3656  -0.3582  -0.3088
 -0.3058  -0.2606  -0.2593  -0.2333  -0.2214

          Ground-State Mulliken Net Atomic Charges

     Atom                 Charge (a.u.)
  ----------------------------------------
      1 C                    -0.331500
      2 C                    -0.105649
      3 C                     0.341191
      4 C                    -0.279887
      5 C                     0.197730
      6 C                    -0.121647
      7 C                    -0.344764
      8 C                     0.479758
      9 N                    -0.541780
     10 C                    -0.010981
     11 C                     0.023696
     12 N                    -0.302958
     13 N                    -0.383658
     14 H                     0.147679
     15 H                     0.171528
     16 H                     0.133594
     17 H                     0.139811
     18 H                     0.128868
     19 H                     0.206716
     20 H                     0.143527
     21 H                     0.143474
     22 H                     0.165251
  ----------------------------------------
  Sum of atomic charges =     0.000000

                    Cartesian Multipole Moments
 -----------------------------------------------------------------
    Charge (ESU x 10^10)
                 0.0000
    Dipole Moment (Debye)
         X       1.2941      Y       0.9700      Z       0.0030
       Tot       1.6173
    Quadrupole Moments (Debye-Ang)
        XX     -71.9902     XY       1.0514     YY     -63.4250
        XZ      -0.0171     YZ      -0.0228     ZZ     -78.2808

 Total job time:  32.08s(wall), 31.58s(cpu)
        *  Thank you very much for using Q-Chem.  Have a nice day.  *
