 Q-Chem 5.2, Q-Chem, Inc., Pleasanton, CA (2019)
 Q-Chem 5.2.1 for Intel X86 EM64T Linux

User input:
--------------------------------------------------------------
$molecule
0 1
C        -3.56803015260000   -0.81693295560000    0.00015665530000
C        -2.80747654900000    0.27185337500000    0.00048785840000
C        -1.35448945820000    0.22862030010000   -0.00007795440000
C        -0.58476758360000    1.39908250340000   -0.00033326760000
N         0.73077507960000    1.37871362050000   -0.00023537850000
C         1.34336063820000    0.18890119090000   -0.00008211030000
C         2.79680587990000    0.22878632380000    0.00045731410000
C         3.60904888130000   -0.82176700500000    0.00017412340000
C         0.57151802760000   -0.98171063350000   -0.00033465190000
N        -0.74296758430000   -0.96168418440000   -0.00024671750000
H        -4.64291220120000   -0.76257375840000    0.00063291830000
H        -3.11789348410000   -1.79478393790000   -0.00054952520000
H        -3.24285596440000    1.26252255100000    0.00113304530000
H        -1.04656422890000    2.37852210730000   -0.00056970420000
H         3.19716171090000    1.23383057460000    0.00115902090000
H         3.24971942120000   -1.83682923580000   -0.00057558800000
H         4.67845232820000   -0.69908049620000    0.00066815920000
H         1.02319074840000   -1.96423361850000   -0.00053703750000
$end

$rem
BASIS = 6-31G*
GUI = 2
METHOD = B3LYP
PRINT_ORBITALS false
MOLDEN_FORMAT false
--------------------------------------------------------------

             Standard Nuclear Orientation (Angstroms)
    I     Atom           X                Y                Z
 ----------------------------------------------------------------
    1      C       3.5623713871    -0.8292618797    -0.0001700146
    2      C       2.8103274302     0.2654195185    -0.0004712829
    3      C       1.3570474976     0.2335130466     0.0000938137
    4      C       0.5964721707     1.4099392824     0.0003812921
    5      N      -0.7191892948     1.3998250157     0.0002832665
    6      C      -1.3410302352     0.2148235313     0.0000977458
    7      C      -2.7941204403     0.2660363434    -0.0004401279
    8      C      -3.6145273036    -0.7781540530    -0.0001853283
    9      C      -0.5783354029    -0.9617688650     0.0003181175
   10      N       0.7362663742    -0.9519887775     0.0002303105
   11      H       4.6376444860    -0.7832824869    -0.0006451376
   12      H       3.1046265351    -1.8035745867     0.0005096420
   13      H       3.2534153888     1.2526650536    -0.0010895917
   14      H       1.0658890279     2.3857496534     0.0006442921
   15      H      -3.1866302940     1.2741706549    -0.0011142983
   16      H      -3.2631206596    -1.7959862615     0.0005365866
   17      H      -4.6829419849    -0.6471357946    -0.0006756776
   18      H      -1.0376526765    -1.9407414464     0.0004938524
 ----------------------------------------------------------------

    9    -419.1210465999      3.26e-06  Convergence criterion met
 Total energy in the final basis set =     -419.1210465999

                    Orbital Energies (a.u.)
 --------------------------------------------------------------

 Alpha MOs
 -- Occupied --
-14.3435 -14.3424 -10.2351 -10.2343 -10.2315 -10.2280 -10.1967 -10.1947
-10.1926 -10.1867  -0.9879  -0.9138  -0.8203  -0.7891  -0.7376  -0.6681
 -0.6637  -0.5877  -0.5767  -0.5331  -0.5043  -0.4840  -0.4602  -0.4414
 -0.4345  -0.4284  -0.4018  -0.3716  -0.3655  -0.3506  -0.3132  -0.3020
 -0.2842  -0.2449  -0.2275

          Ground-State Mulliken Net Atomic Charges

     Atom                 Charge (a.u.)
  ----------------------------------------
      1 C                    -0.330198
      2 C                    -0.108545
      3 C                     0.299730
      4 C                     0.002402
      5 N                    -0.458623
      6 C                     0.288749
      7 C                    -0.095761
      8 C                    -0.342945
      9 C                     0.008994
     10 N                    -0.460912
     11 H                     0.147084
     12 H                     0.173419
     13 H                     0.132721
     14 H                     0.145599
     15 H                     0.150528
     16 H                     0.149154
     17 H                     0.153980
     18 H                     0.144625
  ----------------------------------------
  Sum of atomic charges =     0.000000

                    Cartesian Multipole Moments
 -----------------------------------------------------------------
    Charge (ESU x 10^10)
                 0.0000
    Dipole Moment (Debye)
         X       0.0298      Y      -0.2931      Z      -0.0003
       Tot       0.2946
    Quadrupole Moments (Debye-Ang)
        XX     -48.9282     XY       4.8798     YY     -56.9192
        XZ       0.0004     YZ      -0.0029     ZZ     -60.6146

 Total job time:  17.31s(wall), 16.70s(cpu)
        *  Thank you very much for using Q-Chem.  Have a nice day.  *
