 Q-Chem 5.2, Q-Chem, Inc., Pleasanton, CA (2019)
 Q-Chem 5.2.1 for Intel X86 EM64T Linux

User input:
--------------------------------------------------------------
$molecule
0 1
C         1.99880769870000   -5.41475596580000    1.10923575360000
O         1.39509782080000   -4.15716297820000    1.29817432150000
C         1.80363720800000   -3.11632293330000    0.52582641200000
C         1.16219105610000   -1.90199548990000    0.77051094460000
C         1.47192334170000   -0.77410980210000    0.02828610470000
N         0.82247557800000    0.45605743290000    0.25353092150000
C         1.70226896150000    1.54046875650000    0.45144912770000
C         2.75267759430000    1.74928627470000   -0.44082488060000
S         2.97847348840000    0.62119490790000   -1.78981546440000
C         3.62213915200000    2.81551125800000   -0.27300361520000
C         3.45785345300000    3.67373860880000    0.79842755580000
C         2.44872203440000    3.44409864110000    1.72026136820000
C         1.58388690020000    2.37745545610000    1.55650743470000
C        -0.54891215650000    0.61340902530000    0.16419946560000
C        -1.13914210850000    1.87875416290000    0.26924606620000
C        -2.50258552890000    2.03173733630000    0.16708130940000
C        -3.34826925080000    0.94243546920000   -0.05654579780000
C        -4.77673702220000    1.17692472070000   -0.13286377910000
C        -5.75086224920000    0.29637849480000   -0.31366189140000
F        -5.64973398520000   -1.02122519510000   -0.46894676800000
F        -7.04142755900000    0.63658368620000   -0.36567622610000
C        -2.75264698640000   -0.31085250940000   -0.21585858300000
C        -1.38921902530000   -0.47104673260000   -0.11508394250000
C         2.49739586660000   -0.84524031370000   -0.91565760020000
C         3.14363462160000   -2.04443873260000   -1.15264150340000
C         2.79017493400000   -3.18504897130000   -0.45381644580000
H         1.52061004920000   -6.08005487350000    1.82611226160000
H         3.07409655480000   -5.37854202790000    1.31069392740000
H         1.82972116710000   -5.79349012900000    0.09629763430000
H         0.41342048420000   -1.86040440640000    1.54531339100000
H         4.41597134540000    2.96424860680000   -0.98843535160000
H         4.12762273780000    4.51049795860000    0.92291362180000
H         2.33612241160000    4.09516042670000    2.57373590680000
H         0.80495826680000    2.18625297790000    2.27930105070000
H        -0.52442344080000    2.75389263250000    0.40866392720000
H        -2.92577700860000    3.02164178250000    0.25776771390000
H        -5.10273862630000    2.20187008650000   -0.02628280740000
H        -3.35723089940000   -1.17704472950000   -0.42890787030000
H        -0.96946058620000   -1.45055808510000   -0.27756179040000
H         3.92270163010000   -2.08487798550000   -1.89783925920000
H         3.30001602890000   -4.10917076200000   -0.67096609460000
$end

$rem
BASIS = 6-31G*
GUI = 2
METHOD = B3LYP
PRINT_ORBITALS false
MOLDEN_FORMAT false
--------------------------------------------------------------

             Standard Nuclear Orientation (Angstroms)
    I     Atom           X                Y                Z
 ----------------------------------------------------------------
    1      C      -2.4980848730     5.1734199967     1.0336660030
    2      O      -1.7704180567     3.9857469702     1.2377182219
    3      C      -2.0568686427     2.9057619157     0.4641860202
    4      C      -1.2970238207     1.7652061577     0.7243460392
    5      C      -1.4766672055     0.6089766054    -0.0171520412
    6      N      -0.7069209533    -0.5465655023     0.2237674388
    7      C      -1.4726738207    -1.7156724287     0.4134183638
    8      C      -2.4817495570    -2.0349996329    -0.4937267474
    9      S      -2.8020550795    -0.9406117046    -1.8513235018
   10      C      -3.2386406641    -3.1850420670    -0.3340979772
   11      C      -3.0031179141    -4.0182635557     0.7437608798
   12      C      -2.0377102407    -3.6824102458     1.6797357143
   13      C      -1.2855269386    -2.5324184665     1.5241014256
   14      C       0.6746151934    -0.5612554714     0.1560471956
   15      C       1.3909889958    -1.7582986813     0.2760498225
   16      C       2.7643725519    -1.7695071493     0.1953564055
   17      C       3.4960983492    -0.5991508690    -0.0205420267
   18      C       4.9421852557    -0.6846078682    -0.0740170446
   19      C       5.8225946739     0.2915599708    -0.2441498687
   20      F       5.5880061865     1.5911001122    -0.4071942327
   21      F       7.1421050218     0.0867442376    -0.2749206241
   22      C       2.7764578413     0.5851712360    -0.1948288413
   23      C       1.4023646449     0.6035491479    -0.1155592871
   24      C      -2.4891264094     0.5705109399    -0.9769071767
   25      C      -3.2522910844     1.6955467504    -1.2293687592
   26      C      -3.0298006761     2.8688269379    -0.5306602733
   27      H      -2.1026045899     5.8869306244     1.7545720205
   28      H      -3.5668570177     5.0266186709     1.2189183779
   29      H      -2.3533291614     5.5644567239     0.0216336334
   30      H      -0.5601627083     1.8038516479     1.5106336746
   31      H      -4.0015337522    -3.4174734259    -1.0608061160
   32      H      -3.5844998092    -4.9195216740     0.8620096906
   33      H      -1.8716383235    -4.3156211389     2.5378982833
   34      H      -0.5419677940    -2.2592718702     2.2577427210
   35      H       0.8680960993    -2.6919783528     0.4102474798
   36      H       3.2863280291    -2.7099459987     0.2971557929
   37      H       5.3708656357    -1.6699191829     0.0423629243
   38      H       3.2913479273     1.5086718403    -0.4027603252
   39      H       0.8860206401     1.5337814558    -0.2890395743
   40      H      -4.0196250700     1.6527093637    -1.9865107175
   41      H      -3.6291425376     3.7344628600    -0.7599129279
 ----------------------------------------------------------------

    9   -1537.0678675411      5.42e-06  Convergence criterion met
 Total energy in the final basis set =    -1537.0678675411

                    Orbital Energies (a.u.)
 --------------------------------------------------------------

 Alpha MOs
 -- Occupied --
-88.8916 -24.7330 -24.7222 -19.1848 -14.3724 -10.3426 -10.2551 -10.2457
-10.2375 -10.2353 -10.2308 -10.2239 -10.2187 -10.2010 -10.1979 -10.1960
-10.1947 -10.1943 -10.1941 -10.1926 -10.1912 -10.1893 -10.1835 -10.1806
-10.1779 -10.1772  -7.9524  -5.9173  -5.9139  -5.9075  -1.2725  -1.2121
 -1.0759  -0.9876  -0.8744  -0.8712  -0.8511  -0.8111  -0.7954  -0.7725
 -0.7644  -0.7525  -0.7429  -0.7297  -0.7097  -0.6795  -0.6501  -0.6364
 -0.6200  -0.6140  -0.6003  -0.5970  -0.5692  -0.5611  -0.5504  -0.5425
 -0.5237  -0.5068  -0.5030  -0.4991  -0.4899  -0.4811  -0.4778  -0.4648
 -0.4549  -0.4478  -0.4449  -0.4419  -0.4371  -0.4297  -0.4295  -0.4201
 -0.4128  -0.4098  -0.4085  -0.4008  -0.3888  -0.3835  -0.3794  -0.3713
 -0.3632  -0.3586  -0.3504  -0.3391  -0.3331  -0.3299  -0.3259  -0.2897
 -0.2826  -0.2573  -0.2493  -0.2458  -0.2398  -0.2076  -0.1807

          Ground-State Mulliken Net Atomic Charges

     Atom                 Charge (a.u.)
  ----------------------------------------
      1 C                    -0.217155
      2 O                    -0.505076
      3 C                     0.376623
      4 C                    -0.211626
      5 C                     0.276344
      6 N                    -0.692623
      7 C                     0.259969
      8 C                    -0.097809
      9 S                     0.164459
     10 C                    -0.177955
     11 C                    -0.110976
     12 C                    -0.147085
     13 C                    -0.142717
     14 C                     0.360492
     15 C                    -0.196409
     16 C                    -0.206590
     17 C                     0.199335
     18 C                    -0.298005
     19 C                     0.532097
     20 F                    -0.240637
     21 F                    -0.255288
     22 C                    -0.206982
     23 C                    -0.194063
     24 C                    -0.106410
     25 C                    -0.182458
     26 C                    -0.181646
     27 H                     0.172990
     28 H                     0.153133
     29 H                     0.152983
     30 H                     0.158220
     31 H                     0.146285
     32 H                     0.133752
     33 H                     0.135411
     34 H                     0.151376
     35 H                     0.148667
     36 H                     0.125080
     37 H                     0.154073
     38 H                     0.136916
     39 H                     0.150198
     40 H                     0.147865
     41 H                     0.135242
  ----------------------------------------
  Sum of atomic charges =     0.000000

                    Cartesian Multipole Moments
 -----------------------------------------------------------------
    Charge (ESU x 10^10)
                 0.0000
    Dipole Moment (Debye)
         X      -3.1405      Y       0.7103      Z       1.1676
       Tot       3.4250
    Quadrupole Moments (Debye-Ang)
        XX    -156.7962     XY      -9.8728     YY    -126.9889
        XZ       1.8078     YZ      -4.3204     ZZ    -154.5767

 Total job time:  140.45s(wall), 139.79s(cpu)
        *  Thank you very much for using Q-Chem.  Have a nice day.  *
