 Q-Chem 5.2, Q-Chem, Inc., Pleasanton, CA (2019)
 Q-Chem 5.2.1 for Intel X86 EM64T Linux

User input:
--------------------------------------------------------------
$molecule
0 1
C         2.08046483430000   -3.29575930130000   -0.44368064220000
C         2.26394719880000   -2.11853564270000    0.13961348470000
C         1.32626871630000   -0.99654748340000    0.08550954540000
C        -0.04445102440000   -1.23825660310000    0.05638693110000
C        -0.97651423680000   -0.21285165150000    0.04359063080000
C        -2.47839521200000   -0.45345238830000    0.01359975960000
C        -2.83466818280000   -1.94065982360000   -0.05899709450000
C        -3.10586249810000    0.12823613750000    1.28799794250000
C        -3.07311927530000    0.23948204120000   -1.22048742780000
C        -0.49160425270000    1.08867170910000    0.08334111520000
C         0.86597693700000    1.37964603110000    0.11309746530000
C         1.31680004210000    2.76942342660000    0.19637874230000
C         0.70894898860000    3.80262884230000   -0.37141969120000
C         1.79760602570000    0.32650757760000    0.09121417300000
N         3.15636747290000    0.59127311730000    0.08919970730000
H         2.79728419370000   -4.09362520080000   -0.34729636950000
H         1.21437075840000   -3.50516697890000   -1.04882764960000
H         3.16329153300000   -1.95264199590000    0.72136236980000
H        -0.36190151470000   -2.26734540340000    0.06992777080000
H        -2.47240071880000   -2.47340053920000    0.81712018310000
H        -2.41764474940000   -2.39875024530000   -0.95295784310000
H        -3.91656619430000   -2.05323748310000   -0.09643199050000
H        -2.67613396840000   -0.34623006800000    2.16780610130000
H        -4.18027347780000   -0.04477751440000    1.29147933790000
H        -2.93241454050000    1.19835519870000    1.36066404570000
H        -2.61522175300000   -0.15065042880000   -2.12722010950000
H        -2.90710355230000    1.31263996610000   -1.19002011930000
H        -4.14569159110000    0.06272466960000   -1.27126708280000
H        -1.17872905290000    1.91983397590000    0.11853208080000
H         2.20938932230000    2.94038609690000    0.78697943670000
H        -0.16898969210000    3.68273391090000   -0.98397389660000
H         1.07295773520000    4.80930481280000   -0.25396699080000
H         3.42235076420000    1.50556237290000   -0.23719843150000
H         3.74500067400000   -0.14833791690000   -0.25670840860000
$end

$rem
BASIS = 6-31G*
GUI = 2
METHOD = B3LYP
PRINT_ORBITALS false
MOLDEN_FORMAT false
--------------------------------------------------------------

             Standard Nuclear Orientation (Angstroms)
    I     Atom           X                Y                Z
 ----------------------------------------------------------------
    1      C      -1.5956006634    -3.5851513225     0.3969018688
    2      C      -1.9604255180    -2.4450185753    -0.1747216989
    3      C      -1.2100962659    -1.1906886610    -0.1062521287
    4      C       0.1815247264    -1.2150824656    -0.0755928933
    5      C       0.9414866997    -0.0565769902    -0.0494441917
    6      C       2.4624757610    -0.0593478559    -0.0175188404
    7      C       3.0471629175    -1.4731135989     0.0407395632
    8      C       2.9927491789     0.6269902930    -1.2839774905
    9      C       2.9397521452     0.7049450390     1.2254170570
   10      C       0.2587865239     1.1533127871    -0.0771578826
   11      C      -1.1275723990     1.2284252928    -0.1079024983
   12      C      -1.7903711735     2.5312776167    -0.1781311167
   13      C      -1.3525583328     3.6407946271     0.4021130693
   14      C      -1.8828071411     0.0422276818    -0.0996592147
   15      N      -3.2662683194     0.0909321517    -0.0989094382
   16      H      -2.1785007009    -4.4843416194     0.2901579146
   17      H      -0.7081801886    -3.6628103361     1.0023995178
   18      H      -2.8739016309    -2.4157905844    -0.7573706623
   19      H       0.6562359224    -2.1815661194    -0.0988427211
   20      H       2.7739257815    -2.0466217705    -0.8419051638
   21      H       2.7058712983    -2.0003712448     0.9286813428
   22      H       4.1332927505    -1.4152894571     0.0801953957
   23      H       2.6437620980     0.1005106282    -2.1699088453
   24      H       4.0810017293     0.6243919802    -1.2860828030
   25      H       2.6539492653     1.6574645260    -1.3460809159
   26      H       2.5474317736     0.2382666041     2.1267125720
   27      H       2.6077624144     1.7391336372     1.2055633177
   28      H       4.0267050032     0.6977821023     1.2775255132
   29      H       0.8073137868     2.0821421181    -0.1017246221
   30      H      -2.6979580012     2.5666640543    -0.7695590399
   31      H      -0.4674671073     3.6533146065     1.0159783222
   32      H      -1.8695743237     4.5792517412     0.2940079157
   33      H      -3.6725728331     0.9487571456     0.2361437236
   34      H      -3.7322575555    -0.7353762825     0.2375936901
 ----------------------------------------------------------------

    9    -599.6485393013      1.88e-06  Convergence criterion met
 Total energy in the final basis set =     -599.6485393013

                    Orbital Energies (a.u.)
 --------------------------------------------------------------

 Alpha MOs
 -- Occupied --
-14.3395 -10.2205 -10.1901 -10.1875 -10.1865 -10.1810 -10.1796 -10.1771
-10.1760 -10.1733 -10.1725 -10.1714 -10.1646 -10.1640 -10.1630  -0.9243
 -0.8493  -0.8095  -0.8009  -0.7610  -0.7122  -0.7108  -0.6808  -0.6797
 -0.6319  -0.6060  -0.5873  -0.5342  -0.5296  -0.5234  -0.5176  -0.4635
 -0.4584  -0.4529  -0.4413  -0.4345  -0.4290  -0.4175  -0.4073  -0.3961
 -0.3905  -0.3783  -0.3744  -0.3612  -0.3602  -0.3583  -0.3385  -0.3283
 -0.3126  -0.3075  -0.2992  -0.2964  -0.2684  -0.2159  -0.1892

          Ground-State Mulliken Net Atomic Charges

     Atom                 Charge (a.u.)
  ----------------------------------------
      1 C                    -0.339483
      2 C                    -0.154628
      3 C                     0.155482
      4 C                    -0.290173
      5 C                     0.202508
      6 C                     0.006461
      7 C                    -0.453989
      8 C                    -0.435870
      9 C                    -0.435917
     10 C                    -0.276254
     11 C                     0.151145
     12 C                    -0.155012
     13 C                    -0.338602
     14 C                     0.169865
     15 N                    -0.813450
     16 H                     0.138967
     17 H                     0.143471
     18 H                     0.134084
     19 H                     0.123829
     20 H                     0.146092
     21 H                     0.142462
     22 H                     0.138993
     23 H                     0.146335
     24 H                     0.134507
     25 H                     0.142950
     26 H                     0.144881
     27 H                     0.139617
     28 H                     0.135299
     29 H                     0.123067
     30 H                     0.135356
     31 H                     0.143588
     32 H                     0.139631
     33 H                     0.327294
     34 H                     0.327495
  ----------------------------------------
  Sum of atomic charges =     0.000000

                    Cartesian Multipole Moments
 -----------------------------------------------------------------
    Charge (ESU x 10^10)
                 0.0000
    Dipole Moment (Debye)
         X      -1.1130      Y       0.0874      Z       0.8582
       Tot       1.4082
    Quadrupole Moments (Debye-Ang)
        XX     -81.1091     XY      -0.3055     YY     -86.8239
        XZ      -1.7241     YZ       0.0419     ZZ     -95.2798

 Total job time:  61.09s(wall), 60.30s(cpu)
        *  Thank you very much for using Q-Chem.  Have a nice day.  *
