 Q-Chem 5.2, Q-Chem, Inc., Pleasanton, CA (2019)
 Q-Chem 5.2.1 for Intel X86 EM64T Linux

User input:
--------------------------------------------------------------
$molecule
0 1
F        -6.79727562720000   -0.45245257150000   -0.19053961210000
C        -5.51614767770000   -0.07103968740000   -0.17420488830000
F        -5.46168370940000    1.24804052770000   -0.34662249230000
C        -4.51062991960000   -0.91875078700000   -0.00820001850000
C        -3.08881758180000   -0.64205062120000    0.03068886580000
C        -2.53670212480000    0.63069431690000   -0.14093370170000
C        -1.17707927760000    0.83006170460000   -0.08392555260000
C        -0.29703770620000   -0.23314880220000    0.16116626340000
N         1.06405659620000   -0.03789709840000    0.18789465120000
C         1.65076902500000    1.24576253090000    0.24999396140000
C         2.65831721420000    1.66087668820000   -0.62385723510000
C         3.23380654830000    0.85787660260000   -1.76605192110000
C         2.59732723110000   -0.50624823280000   -2.04416776840000
C         2.75893914630000   -1.39616255650000   -0.85156086380000
C         1.97149035900000   -1.12579770140000    0.26446797370000
C         2.09954252900000   -1.88030163990000    1.42189075170000
C         3.01310672910000   -2.91886358880000    1.46321243280000
C         3.79982356640000   -3.19472507780000    0.35748381630000
C         3.67663224990000   -2.43281079410000   -0.79190348500000
C         3.19242439720000    2.93563638860000   -0.44330261800000
C         2.75735332680000    3.78325467990000    0.55453874060000
C         1.76353597970000    3.35971195300000    1.42197984040000
C         1.22746420990000    2.09920686390000    1.27141207280000
C        -0.84574844750000   -1.51511521010000    0.29469756970000
C        -2.20647137400000   -1.70648722940000    0.23538878660000
H        -4.80313408030000   -1.95178486060000    0.11627787060000
H        -3.17477994100000    1.47821301100000   -0.33056398020000
H        -0.78306948920000    1.82191064650000   -0.24494216810000
H         4.30004961110000    0.70616428040000   -1.56457972160000
H         3.16287502050000    1.46852105510000   -2.67129263090000
H         3.08256733950000   -0.94954023550000   -2.91545963750000
H         1.53607079630000   -0.37662238330000   -2.27024113730000
H         1.48641511020000   -1.64972399530000    2.28080138410000
H         3.11469038040000   -3.50908467140000    2.36159807310000
H         4.51363989650000   -4.00411639770000    0.39215488680000
H         4.29258728500000   -2.64894835650000   -1.65306700790000
H         3.97004546270000    3.26517210180000   -1.11831331820000
H         3.19178143100000    4.76585041350000    0.65861407790000
H         1.41721526130000    4.00318442430000    2.21647043110000
H         0.46425635170000    1.74885494610000    1.95114427190000
H        -0.19656490550000   -2.36525880670000    0.43719211870000
H        -2.60067011750000   -2.70617436180000    0.34894138050000
$end

$rem
BASIS = 6-31G*
GUI = 2
METHOD = B3LYP
PRINT_ORBITALS false
MOLDEN_FORMAT false
--------------------------------------------------------------

             Standard Nuclear Orientation (Angstroms)
    I     Atom           X                Y                Z
 ----------------------------------------------------------------
    1      F       6.8977840375    -0.4187063052     0.2336656998
    2      C       5.6152288717    -0.0426386858     0.2080370694
    3      F       5.5541440450     1.2764879511     0.3778614717
    4      C       4.6143718846    -0.8947873364     0.0366729670
    5      C       3.1917224145    -0.6240523294    -0.0122830570
    6      C       2.6331987910     0.6466738042     0.1534634856
    7      C       1.2731792726     0.8403047767     0.0869388507
    8      C       0.3992206974    -0.2269515887    -0.1623000041
    9      N      -0.9624579061    -0.0373922223    -0.1985486181
   10      C      -1.5540425213     1.2437179543    -0.2667703203
   11      C      -2.5691839282     1.6560954526     0.5995562657
   12      C      -3.1490548812     0.8526074910     1.7391889194
   13      C      -2.5088324129    -0.5084029401     2.0238935203
   14      C      -2.6586952589    -1.4009536435     0.8317225959
   15      C      -1.8648449186    -1.1291730147    -0.2794164775
   16      C      -1.9819471166    -1.8861172083    -1.4364055015
   17      C      -2.8909067993    -2.9285268955    -1.4821470566
   18      C      -3.6839328401    -3.2058181233    -0.3812937557
   19      C      -3.5716676762    -2.4414971285     0.7676146804
   20      C      -3.1073273294     2.9283278561     0.4132523798
   21      C      -2.6690306950     3.7760901279    -0.5830538842
   22      C      -1.6676281650     3.3552378000    -1.4430490665
   23      C      -1.1273764870     2.0972183596    -1.2867420393
   24      C       0.9541203497    -1.5068501479    -0.2899636737
   25      C       2.3151912833    -1.6924774587    -0.2211444946
   26      H       4.9119819797    -1.9268038560    -0.0840869625
   27      H       3.2664684566     1.4971449480     0.3459712596
   28      H       0.8739901032     1.8307760119     0.2436204597
   29      H      -4.2132748018     0.6961400420     1.5307762451
   30      H      -3.0867715479     1.4650390924     2.6438584676
   31      H      -2.9981136633    -0.9522606241     2.8926336989
   32      H      -1.4496739061    -0.3740016918     2.2569102825
   33      H      -1.3639862867    -1.6544207526    -2.2915428715
   34      H      -2.9839721265    -3.5206511314    -2.3802031002
   35      H      -4.3941439535    -4.0182198550    -0.4194217746
   36      H      -4.1925310018    -2.6587616451     1.6249614744
   37      H      -3.8908505653     3.2557522915     1.0824401942
   38      H      -3.1068065104     4.7567016135    -0.6917151885
   39      H      -1.3186092820     3.9988248627    -2.2362650976
   40      H      -0.3581479711     1.7489103195    -1.9607135248
   41      H       0.3094375111    -2.3599141844    -0.4354074418
   42      H       2.7142809536    -2.6907074261    -0.3303487568
 ----------------------------------------------------------------

    9   -1102.9837496209      5.06e-06  Convergence criterion met
 Total energy in the final basis set =    -1102.9837496209

                    Orbital Energies (a.u.)
 --------------------------------------------------------------

 Alpha MOs
 -- Occupied --
-24.7310 -24.7202 -14.3590 -10.3402 -10.2258 -10.2255 -10.2224 -10.1971
-10.1951 -10.1947 -10.1918 -10.1915 -10.1909 -10.1909 -10.1905 -10.1903
-10.1866 -10.1865 -10.1858 -10.1853 -10.1851 -10.1813 -10.1786 -10.1747
-10.1745  -1.2701  -1.2099  -0.9769  -0.8670  -0.8632  -0.8459  -0.8081
 -0.7929  -0.7633  -0.7623  -0.7442  -0.7401  -0.7262  -0.6979  -0.6551
 -0.6424  -0.6204  -0.6137  -0.6059  -0.5990  -0.5793  -0.5702  -0.5576
 -0.5369  -0.5254  -0.5147  -0.5046  -0.4956  -0.4876  -0.4773  -0.4646
 -0.4611  -0.4471  -0.4440  -0.4409  -0.4366  -0.4295  -0.4277  -0.4217
 -0.4176  -0.4088  -0.4068  -0.3988  -0.3939  -0.3841  -0.3781  -0.3703
 -0.3623  -0.3619  -0.3547  -0.3499  -0.3425  -0.3346  -0.3291  -0.3192
 -0.2754  -0.2535  -0.2481  -0.2463  -0.2423  -0.2364  -0.1781

          Ground-State Mulliken Net Atomic Charges

     Atom                 Charge (a.u.)
  ----------------------------------------
      1 F                    -0.257050
      2 C                     0.529552
      3 F                    -0.241888
      4 C                    -0.298024
      5 C                     0.197348
      6 C                    -0.205920
      7 C                    -0.193726
      8 C                     0.352182
      9 N                    -0.680863
     10 C                     0.193900
     11 C                     0.179677
     12 C                    -0.345060
     13 C                    -0.351896
     14 C                     0.186571
     15 C                     0.183246
     16 C                    -0.136103
     17 C                    -0.146687
     18 C                    -0.112421
     19 C                    -0.219111
     20 C                    -0.203793
     21 C                    -0.116759
     22 C                    -0.144974
     23 C                    -0.142725
     24 C                    -0.200825
     25 C                    -0.206326
     26 H                     0.152977
     27 H                     0.135477
     28 H                     0.146565
     29 H                     0.158738
     30 H                     0.155982
     31 H                     0.140992
     32 H                     0.168201
     33 H                     0.141965
     34 H                     0.132127
     35 H                     0.129473
     36 H                     0.126852
     37 H                     0.122774
     38 H                     0.127155
     39 H                     0.130812
     40 H                     0.144976
     41 H                     0.143118
     42 H                     0.123492
  ----------------------------------------
  Sum of atomic charges =     0.000000

                    Cartesian Multipole Moments
 -----------------------------------------------------------------
    Charge (ESU x 10^10)
                 0.0000
    Dipole Moment (Debye)
         X      -3.3800      Y      -0.5522      Z       0.0553
       Tot       3.4253
    Quadrupole Moments (Debye-Ang)
        XX    -147.2243     XY      -1.0148     YY    -130.8667
        XZ      -5.4418     YZ       1.1293     ZZ    -137.0205

 Total job time:  149.11s(wall), 144.18s(cpu)
        *  Thank you very much for using Q-Chem.  Have a nice day.  *
