 Q-Chem 5.4, Q-Chem, Inc., Pleasanton, CA (2021)
 Q-Chem 5.4.2 for Intel X86 EM64T Linux

User input:
--------------------------------------------------------------
$molecule
0 1
C           -4.64510122020000        0.29061314000000        0.20761160390000
C           -3.61949734450000       -0.15206954270000       -0.50559434400000
C           -2.20030289120000        0.01180154490000       -0.18205952480000
C           -1.37103979080000       -1.08872734460000       -0.38809313740000
C           -0.01479573310000       -1.08215642860000       -0.10561716350000
C            0.78267726490000       -2.33434765340000       -0.30212184910000
C            0.54485166710000        0.10261561450000        0.38450580030000
C            1.96307402000000        0.25900247700000        0.71816954270000
C            2.99587633070000       -0.09526331040000       -0.02494553050000
F            2.97114699220000       -0.65562547470000       -1.22861981060000
F            4.26618987460000        0.09813269120000        0.33525741420000
C           -0.27973518330000        1.20569781290000        0.59292077180000
C           -1.63633755790000        1.19432537690000        0.31423576980000
C           -2.42671584120000        2.45098846720000        0.52269763110000
H           -5.66126435220000        0.09506862910000       -0.09153425320000
H           -4.51790555490000        0.83396371400000        1.12733686290000
H           -3.81015699330000       -0.74548113320000       -1.39246877150000
H           -1.81419669780000       -1.99946984250000       -0.76733511630000
H            0.14038200410000       -3.20718107150000       -0.21002279200000
H            1.58331976820000       -2.40978646830000        0.43076826300000
H            1.23086221450000       -2.35013630300000       -1.29504930040000
H            2.19697350680000        0.76956592490000        1.64153634810000
H            0.16577640080000        2.11599676880000        0.97009514350000
H           -1.79143805060000        3.32169413330000        0.37313026340000
H           -2.81491586780000        2.49497997020000        1.54034228160000
H           -3.26668617110000        2.50287296070000       -0.16548083960000
$end

$rem
BASIS = 6-31G*
GUI = 2
METHOD = B3LYP
PRINT_ORBITALS false
MOLDEN_FORMAT false
$end
--------------------------------------------------------------

             Standard Nuclear Orientation (Angstroms)
    I     Atom           X                Y                Z
 ----------------------------------------------------------------
    1      C       4.5115116869     0.3962620770     0.2101912167
    2      C       3.4091106335     0.8795256497    -0.3444818656
    3      C       2.0436852736     0.3940339144    -0.1310509154
    4      C       1.0442394983     1.3537681084     0.0149264624
    5      C      -0.2852716483     1.0382302586     0.2431144842
    6      C      -1.2772535655     2.1410372084     0.4489028341
    7      C      -0.6351493956    -0.3150680339     0.3003841936
    8      C      -2.0005277555    -0.7967760876     0.5258665019
    9      C      -3.0967691556    -0.3870915275    -0.0863574988
   10      F      -3.1950091809     0.5348142425    -1.0370875954
   11      F      -4.3095533866    -0.8883849593     0.1559315409
   12      C       0.3601546074    -1.2787088357     0.1556881071
   13      C       1.6893590896    -0.9598941469    -0.0673305109
   14      C       2.6753835919    -2.0719331668    -0.2634967665
   15      H       5.4748413567     0.8388956592     0.0194430327
   16      H       4.4980599014    -0.4326303152     0.8958001338
   17      H       3.4781217605     1.7543101694    -0.9808969628
   18      H       1.3259057175     2.3969415387    -0.0310926155
   19      H      -0.7799764716     3.0254480183     0.8405616464
   20      H      -2.0590773257     1.8420993221     1.1440539669
   21      H      -1.7495504385     2.4112857611    -0.4949855797
   22      H      -2.1244026536    -1.6133794633     1.2228630573
   23      H       0.0760367725    -2.3211641206     0.1998390092
   24      H       2.1831008813    -2.9343148169    -0.7085049105
   25      H       3.0936649896    -2.3861395018     0.6928244134
   26      H       3.4935014538    -1.7595283089    -0.9076381579
 ----------------------------------------------------------------

    9    -664.1407848817      6.10e-06  Convergence criterion met
 Total energy in the final basis set =     -664.1407848817

                    Orbital Energies (a.u.)
 --------------------------------------------------------------

 Alpha MOs
 -- Occupied --
-24.7389 -24.7309 -10.3532 -10.1988 -10.1977 -10.1916 -10.1912 -10.1899
-10.1892 -10.1814 -10.1802 -10.1796 -10.1758 -10.1752  -1.2807  -1.2201
 -0.8713  -0.8178  -0.7827  -0.7749  -0.7236  -0.7213  -0.6556  -0.6420
 -0.6071  -0.5970  -0.5689  -0.5500  -0.5172  -0.5100  -0.4847  -0.4787
 -0.4549  -0.4389  -0.4374  -0.4326  -0.4259  -0.4173  -0.4165  -0.4066
 -0.4002  -0.3928  -0.3776  -0.3687  -0.3438  -0.3392  -0.3311  -0.2938
 -0.2632  -0.2362  -0.2152

          Ground-State Mulliken Net Atomic Charges

     Atom                 Charge (a.u.)
  ----------------------------------------
      1 C                    -0.334969
      2 C                    -0.141126
      3 C                     0.114505
      4 C                    -0.256093
      5 C                     0.144731
      6 C                    -0.536468
      7 C                     0.125854
      8 C                    -0.345322
      9 C                     0.565802
     10 F                    -0.234655
     11 F                    -0.250259
     12 C                    -0.243651
     13 C                     0.131155
     14 C                    -0.535631
     15 H                     0.142398
     16 H                     0.147628
     17 H                     0.135231
     18 H                     0.119426
     19 H                     0.153625
     20 H                     0.155903
     21 H                     0.171850
     22 H                     0.168018
     23 H                     0.118963
     24 H                     0.153679
     25 H                     0.160682
     26 H                     0.168726
  ----------------------------------------
  Sum of atomic charges =     0.000000

                    Cartesian Multipole Moments
 -----------------------------------------------------------------
    Charge (ESU x 10^10)
                 0.0000
    Dipole Moment (Debye)
         X       1.0792      Y      -0.2075      Z       0.4095
       Tot       1.1728
    Quadrupole Moments (Debye-Ang)
        XX     -80.9036     XY      -0.0738     YY     -75.2421
        XZ      -1.5146     YZ      -1.6337     ZZ     -81.8931

 Total job time:  67.37s(wall), 62.96s(cpu)
        *  Thank you very much for using Q-Chem.  Have a nice day.  *
