 Q-Chem 5.4, Q-Chem, Inc., Pleasanton, CA (2021)
 Q-Chem 5.4.2 for Intel X86 EM64T Linux

User input:
--------------------------------------------------------------
$molecule
0 1
C           -4.08155198500000        1.44328842240000       -0.05856628950000
C           -2.87117116270000        1.49996699290000       -0.59647629630000
C           -1.79756999520000        0.53476905640000       -0.35482031880000
C           -2.08621835140000       -0.80644957940000       -0.11989369610000
C           -1.06043732640000       -1.72056325300000        0.03560258780000
Cl          -1.44050828430000       -3.38195934310000        0.32371050200000
C            0.26398235690000       -1.33479865680000       -0.05733334030000
C            0.58125806710000        0.00407054320000       -0.28191774000000
C            1.94771398670000        0.48563540940000       -0.40320072700000
C            3.07487396970000       -0.17044350450000       -0.17714690990000
F            3.22605597010000       -1.42788405550000        0.22038807080000
F            4.27720020410000        0.38315085530000       -0.31750162940000
C           -0.45744725490000        0.94375627950000       -0.41446110730000
O           -0.13227028590000        2.26199376570000       -0.63501287300000
C           -0.43664615630000        3.16243476100000        0.42291241930000
C            0.45480859950000        2.95304982750000        1.64197025250000
H           -4.83472873770000        2.17665604560000       -0.28933268500000
H           -4.36141777860000        0.67616892300000        0.64385736180000
H           -2.61293726770000        2.30349888720000       -1.27495549390000
H           -3.11216029910000       -1.13607979230000       -0.09045943340000
H            1.04007581420000       -2.07451061430000        0.04154396000000
H            2.05110762660000        1.51440017590000       -0.71571060240000
H           -1.49008201170000        3.06851381400000        0.71477559160000
H           -0.27286089210000        4.15367807350000       -0.00645865920000
H            0.30663162800000        1.95566668090000        2.05159085000000
H            0.20432559800000        3.68550797230000        2.40413320320000
H            1.50226538550000        3.06808958030000        1.37495915170000
$end

$rem
BASIS = 6-31G*
GUI = 2
METHOD = B3LYP
PRINT_ORBITALS false
MOLDEN_FORMAT false
$end
--------------------------------------------------------------

             Standard Nuclear Orientation (Angstroms)
    I     Atom           X                Y                Z
 ----------------------------------------------------------------
    1      C      -4.0866282922     1.1055483446    -0.0844441938
    2      C      -2.8831844228     1.2229591724    -0.6280607144
    3      C      -1.7543641976     0.3265656439    -0.3733693795
    4      C      -1.9635284153    -1.0247224948    -0.1132799395
    5      C      -0.8856787224    -1.8744792746     0.0545386192
    6      Cl     -1.1672608778    -3.5497145563     0.3739056685
    7      C       0.4136830506    -1.4138734003    -0.0505333532
    8      C       0.6515927897    -0.0630729898    -0.3003532293
    9      C       1.9872432988     0.4950918268    -0.4356522267
   10      C       3.1514369222    -0.0899190583    -0.2023177712
   11      F       3.3769301572    -1.3289823772     0.2171124258
   12      F       4.3189776018     0.5302218298    -0.3573293097
   13      C      -0.4405857162     0.8118706680    -0.4456304812
   14      O      -0.1935719224     2.1426118885    -0.6910794622
   15      C      -0.5469381299     3.0428101225     0.3517148817
   16      C       0.3587475800     2.9079252406     1.5708026949
   17      H      -4.8820045997     1.7894309114    -0.3253541046
   18      H      -4.3191913417     0.3362803193     0.6327289429
   19      H      -2.6742729633     2.0277442782    -1.3218612671
   20      H      -2.9683843312    -1.4130418849    -0.0738848539
   21      H       1.2319253819    -2.1051443793     0.0585330303
   22      H       2.0294883146     1.5222970231    -0.7669745097
   23      H      -1.5922434452     2.8929169102     0.6493743849
   24      H      -0.4425523936     4.0339663623    -0.0960142403
   25      H       0.2702447395     1.9111927068     1.9988331765
   26      H       0.0681336945     3.6382322959     2.3206854897
   27      H       1.3969229455     3.0789999254     1.2976357973
 ----------------------------------------------------------------

    9   -1198.9449523715      5.03e-06  Convergence criterion met
 Total energy in the final basis set =    -1198.9449523715

                    Orbital Energies (a.u.)
 --------------------------------------------------------------

 Alpha MOs
 -- Occupied --
******** -24.7474 -24.7368 -19.1763 -10.3602 -10.2528 -10.2491 -10.2445
-10.2165 -10.2091 -10.2032 -10.2017 -10.2012 -10.2005 -10.1905 -10.1831
 -9.4649  -7.2286  -7.2192  -7.2189  -1.2886  -1.2274  -1.0673  -0.9001
 -0.8521  -0.8242  -0.7824  -0.7719  -0.7387  -0.7241  -0.6619  -0.6496
 -0.6266  -0.5955  -0.5744  -0.5730  -0.5298  -0.5277  -0.5220  -0.4968
 -0.4874  -0.4789  -0.4675  -0.4449  -0.4437  -0.4400  -0.4348  -0.4288
 -0.4199  -0.4073  -0.3980  -0.3912  -0.3892  -0.3746  -0.3648  -0.3493
 -0.3363  -0.3193  -0.3120  -0.2882  -0.2735  -0.2335  -0.2236

          Ground-State Mulliken Net Atomic Charges

     Atom                 Charge (a.u.)
  ----------------------------------------
      1 C                    -0.343563
      2 C                    -0.131397
      3 C                     0.144346
      4 C                    -0.204795
      5 C                    -0.060404
      6 Cl                   -0.016861
      7 C                    -0.219493
      8 C                     0.160011
      9 C                    -0.292729
     10 C                     0.548748
     11 F                    -0.233693
     12 F                    -0.246071
     13 C                     0.208624
     14 O                    -0.530993
     15 C                    -0.047496
     16 C                    -0.463424
     17 H                     0.149631
     18 H                     0.149184
     19 H                     0.156720
     20 H                     0.152304
     21 H                     0.161304
     22 H                     0.181682
     23 H                     0.150855
     24 H                     0.151826
     25 H                     0.165000
     26 H                     0.151899
     27 H                     0.158784
  ----------------------------------------
  Sum of atomic charges =     0.000000

                    Cartesian Multipole Moments
 -----------------------------------------------------------------
    Charge (ESU x 10^10)
                 0.0000
    Dipole Moment (Debye)
         X      -1.1405      Y       2.6026      Z       0.7194
       Tot       2.9312
    Quadrupole Moments (Debye-Ang)
        XX     -95.5498     XY      -3.2213     YY     -96.5080
        XZ      -0.4644     YZ       2.0956     ZZ     -99.3456

 Total job time:  69.62s(wall), 67.79s(cpu)
        *  Thank you very much for using Q-Chem.  Have a nice day.  *
