 Q-Chem 5.2, Q-Chem, Inc., Pleasanton, CA (2019)
 Q-Chem 5.2.1 for Intel X86 EM64T Linux

User input:
--------------------------------------------------------------
$molecule
0 1
F        -5.76935996260000    0.79971023610000    0.97338233210000
C        -4.82371955120000    0.03055405120000    0.43396150330000
F        -5.40304139040000   -1.01453162560000   -0.14471114300000
C        -3.53315319030000    0.32012262960000    0.50031440270000
C        -2.40747645640000   -0.42511643490000   -0.04274177550000
C        -1.13169533560000    0.09432554010000    0.16546482760000
C         0.00010227980000   -0.55152315120000   -0.32469345790000
N         1.26893049540000   -0.00992927800000   -0.11488176760000
C         2.36867383210000   -0.85347735740000    0.09207065400000
C         3.61400254160000   -0.53328738260000   -0.44701067690000
C         4.69769677550000   -1.36323422020000   -0.23495388540000
C         4.55779448270000   -2.52464447220000    0.50694790530000
C         3.32180727270000   -2.84862377840000    1.04192539310000
C         2.23409989010000   -2.02065764110000    0.84291367710000
C         1.45054338210000    1.37941962460000   -0.10932144190000
C         0.74341753030000    2.18995609990000   -0.99685215050000
C         0.92580039690000    3.55918704010000   -0.98453402320000
C         1.81806984790000    4.14065925410000   -0.09865373070000
C         2.52723627620000    3.33918458820000    0.78090620910000
C         2.34532557630000    1.96981415280000    0.78234503870000
C        -0.15697201560000   -1.74716434660000   -1.02857940930000
C        -1.41992228640000   -2.27052765720000   -1.22586914390000
C        -2.54419584120000   -1.62372919310000   -0.74560102040000
H        -3.29587641760000    1.23331412960000    1.02722897460000
H        -1.01370066560000    1.01422800190000    0.71950030420000
H         3.72310195850000    0.36747499470000   -1.03314720260000
H         5.65654761910000   -1.10483273740000   -0.65963035890000
H         5.40605887120000   -3.17242822910000    0.66757428500000
H         3.20470145380000   -3.74890931960000    1.62699621940000
H         1.27385701560000   -2.27004170110000    1.27037989870000
H         0.05553204300000    1.73804877200000   -1.69660040660000
H         0.37346142550000    4.17540880950000   -1.67863885150000
H         1.96034890370000    5.21055366460000   -0.09454286660000
H         3.22206242290000    3.78402920590000    1.47790719500000
H         2.89295456440000    1.34749631370000    1.47488958350000
H         0.71210747990000   -2.25412210780000   -1.41998470750000
H        -1.53095979430000   -3.19452705330000   -1.77334151630000
H        -3.51673779110000   -2.05156104000000   -0.91937280470000
$end

$rem
BASIS = 6-31G*
GUI = 2
METHOD = B3LYP
PRINT_ORBITALS false
MOLDEN_FORMAT false
--------------------------------------------------------------

             Standard Nuclear Orientation (Angstroms)
    I     Atom           X                Y                Z
 ----------------------------------------------------------------
    1      F       5.8593479549    -0.7802590208     1.0126620905
    2      C       4.9148843458    -0.0141984321     0.4668127336
    3      F       5.4949196211     1.0313488807    -0.1103092578
    4      C       3.6246597164    -0.3067251787     0.5265011668
    5      C       2.5002396768     0.4349852945    -0.0239391421
    6      C       1.2245603300    -0.0871559039     0.1780464918
    7      C       0.0939624680     0.5552331949    -0.3193730888
    8      N      -1.1747205707     0.0109592156    -0.1157089232
    9      C      -2.2775820450     0.8522184648     0.0838343495
   10      C      -3.5191539639     0.5282264265    -0.4616032962
   11      C      -4.6059626446     1.3559306085    -0.2568456167
   12      C      -4.4729068535     2.5188341194     0.4839757335
   13      C      -3.2406625648     2.8465868494     1.0252520469
   14      C      -2.1499175326     2.0208933860     0.8335582366
   15      C      -1.3530748830    -1.3788064410    -0.1089494895
   16      C      -0.6391434583    -2.1890557268    -0.9912788626
   17      C      -0.8183526378    -3.5586947108    -0.9777978655
   18      C      -1.7141229122    -4.1408905703    -0.0959349520
   19      C      -2.4300294264    -3.3397204269     0.7784268810
   20      C      -2.2513687065    -1.9699214507     0.7786997873
   21      C       0.2520932128     1.7501362978    -1.0242751227
   22      C       1.5148723793     2.2761855126    -1.2154210907
   23      C       2.6380031803     1.6328132420    -0.7279315268
   24      H       3.3866372160    -1.2196482202     1.0535445788
   25      H       1.1056838796    -1.0064641032     0.7328792729
   26      H      -3.6228841018    -0.3737123679    -1.0469049617
   27      H      -5.5618397952     1.0945866484    -0.6863972213
   28      H      -5.3235750768     3.1648540140     0.6388917493
   29      H      -3.1289191563     3.7480661410     1.6095329707
   30      H      -1.1926424548     2.2732276482     1.2659215138
   31      H       0.0515250836    -1.7366169090    -1.6879354350
   32      H      -0.2607330571    -4.1746935608    -1.6678666600
   33      H      -1.8538916533    -5.2111119345    -0.0909140700
   34      H      -3.1276400352    -3.7851173563     1.4722867343
   35      H      -2.8042841904    -1.3478178269     1.4672246575
   36      H      -0.6160081276     2.2544138678    -1.4212734145
   37      H       1.6267458592     3.1995844279    -1.7637357617
   38      H       3.6104753361     2.0626789515    -0.8970112258
 ----------------------------------------------------------------

    9   -1025.5613932349      5.45e-06  Convergence criterion met
 Total energy in the final basis set =    -1025.5613932349

                    Orbital Energies (a.u.)
 --------------------------------------------------------------

 Alpha MOs
 -- Occupied --
-24.7431 -24.7325 -14.3660 -10.3554 -10.2282 -10.2267 -10.2264 -10.2051
-10.2013 -10.1878 -10.1875 -10.1874 -10.1871 -10.1871 -10.1854 -10.1844
-10.1842 -10.1841 -10.1840 -10.1834 -10.1823 -10.1820 -10.1809  -1.2840
 -1.2228  -0.9801  -0.8662  -0.8598  -0.8435  -0.8045  -0.7638  -0.7599
 -0.7462  -0.7456  -0.7385  -0.7091  -0.6471  -0.6343  -0.6275  -0.6053
 -0.6039  -0.6009  -0.5773  -0.5701  -0.5443  -0.5374  -0.5176  -0.5067
 -0.5000  -0.4841  -0.4796  -0.4680  -0.4569  -0.4495  -0.4437  -0.4395
 -0.4357  -0.4336  -0.4264  -0.4241  -0.4229  -0.4193  -0.4069  -0.3834
 -0.3748  -0.3703  -0.3693  -0.3594  -0.3564  -0.3531  -0.3443  -0.3416
 -0.3209  -0.2943  -0.2599  -0.2593  -0.2537  -0.2479  -0.2224  -0.1822

          Ground-State Mulliken Net Atomic Charges

     Atom                 Charge (a.u.)
  ----------------------------------------
      1 F                    -0.249285
      2 C                     0.541423
      3 F                    -0.234160
      4 C                    -0.295999
      5 C                     0.194297
      6 C                    -0.253874
      7 C                     0.296344
      8 N                    -0.654224
      9 C                     0.279350
     10 C                    -0.165916
     11 C                    -0.138498
     12 C                    -0.127736
     13 C                    -0.138411
     14 C                    -0.166223
     15 C                     0.280487
     16 C                    -0.167257
     17 C                    -0.138460
     18 C                    -0.128132
     19 C                    -0.138298
     20 C                    -0.166816
     21 C                    -0.170574
     22 C                    -0.139288
     23 C                    -0.196733
     24 H                     0.160926
     25 H                     0.146338
     26 H                     0.146512
     27 H                     0.130177
     28 H                     0.125085
     29 H                     0.130266
     30 H                     0.146522
     31 H                     0.146712
     32 H                     0.130424
     33 H                     0.125214
     34 H                     0.130317
     35 H                     0.146724
     36 H                     0.147097
     37 H                     0.131577
     38 H                     0.134093
  ----------------------------------------
  Sum of atomic charges =     0.000000

                    Cartesian Multipole Moments
 -----------------------------------------------------------------
    Charge (ESU x 10^10)
                 0.0000
    Dipole Moment (Debye)
         X      -1.3643      Y      -0.1892      Z      -0.0109
       Tot       1.3774
    Quadrupole Moments (Debye-Ang)
        XX    -130.7278     XY      -0.5611     YY    -120.4441
        XZ      -2.1357     YZ       0.2422     ZZ    -129.3007

 Total job time:  118.42s(wall), 118.05s(cpu)
        *  Thank you very much for using Q-Chem.  Have a nice day.  *
