 Q-Chem 5.2, Q-Chem, Inc., Pleasanton, CA (2019)
 Q-Chem 5.2.1 for Intel X86 EM64T Linux

User input:
--------------------------------------------------------------
$molecule
0 1
C         3.12290560580000    2.45586676640000    0.03988698460000
C         2.65332989820000    1.21301295660000    0.11081292860000
C         1.25894489880000    0.87136834560000    0.04258017040000
S         0.02918511350000    2.08080615410000   -0.14762622220000
C        -1.23417813160000    0.89138540480000   -0.16790853010000
C        -2.61866782090000    1.25868589840000   -0.28616895290000
C        -3.05355644970000    2.51185814780000   -0.38945067480000
C        -0.71615406580000   -0.38161183360000   -0.02359496590000
C        -1.58548799270000   -1.58177617550000    0.09520317000000
O        -2.55582252620000   -1.76959940440000   -0.58700018120000
O        -1.22905589310000   -2.47068278100000    1.03908662960000
C         0.70536695200000   -0.39434824270000    0.07804761360000
C         1.54065852840000   -1.62301999290000    0.13139303510000
O         2.50753144520000   -1.73924124940000    0.83417871810000
O         1.15682805680000   -2.62658433000000   -0.67706943540000
H         4.17612033000000    2.66114807830000    0.10462632550000
H         2.46782872080000    3.30371069080000   -0.08226550620000
H         3.32124088530000    0.37399944950000    0.24711551010000
H        -3.30979874330000    0.42768629000000   -0.30606631460000
H        -2.37508542010000    3.35003104470000   -0.38467126410000
H        -4.10079451760000    2.73515129490000   -0.48447617330000
H        -0.44807239770000   -2.21971257430000    1.55106054180000
H         0.38148284160000   -2.42939066360000   -1.22019924510000
$end

$rem
BASIS = 6-31G*
GUI = 2
METHOD = B3LYP
PRINT_ORBITALS false
MOLDEN_FORMAT false
--------------------------------------------------------------

             Standard Nuclear Orientation (Angstroms)
    I     Atom           X                Y                Z
 ----------------------------------------------------------------
    1      C       3.0965637173    -2.4548360608     0.0243341334
    2      C       2.6439988211    -1.2038023292     0.0065283934
    3      C       1.2513371591    -0.8488841713    -0.0080617496
    4      S       0.0007596825    -2.0518842132     0.0005573140
    5      C      -1.2506785404    -0.8497803270     0.0088278063
    6      C      -2.6431066196    -1.2056390561    -0.0058517453
    7      C      -3.0948514173    -2.4569426091    -0.0259010846
    8      C      -0.7127138895     0.4230602194    -0.0041446352
    9      C      -1.5604669436     1.6403296772    -0.1032342293
   10      O      -2.5791283489     1.7927487108     0.5142813285
   11      O      -1.1248469907     2.5886678186    -0.9511757405
   12      C       0.7124663868     0.4235949597     0.0045919705
   13      C       1.5593364629     1.6414920397     0.1032317101
   14      O       2.5786099350     1.7938308700    -0.5133173989
   15      O       1.1222575108     2.5906603557     0.9494706085
   16      H       4.1499271700    -2.6693483962     0.0259921413
   17      H       2.4271311758    -3.3001940869     0.0351117383
   18      H       3.3272498663    -0.3664284235    -0.0179684786
   19      H      -3.3269299639    -0.3687877401     0.0202961949
   20      H      -2.4248778265    -3.3018428036    -0.0384961181
   21      H      -4.1480822906    -2.6721150663    -0.0275705611
   22      H      -0.3086494544     2.3638337077    -1.4184120360
   23      H       0.3056287329     2.3662141245     1.4161362957
 ----------------------------------------------------------------

    9   -1084.9198397189      8.44e-06  Convergence criterion met
 Total energy in the final basis set =    -1084.9198397189

                    Orbital Energies (a.u.)
 --------------------------------------------------------------

 Alpha MOs
 -- Occupied --
-88.9372 -19.2117 -19.2117 -19.1522 -19.1521 -10.3415 -10.3415 -10.2577
-10.2577 -10.2356 -10.2351 -10.2153 -10.2153 -10.2060 -10.2060  -7.9991
 -5.9631  -5.9594  -5.9561  -1.1266  -1.1189  -1.0407  -1.0396  -0.9271
 -0.8354  -0.8086  -0.7777  -0.7476  -0.6686  -0.6618  -0.6436  -0.6244
 -0.6057  -0.5827  -0.5322  -0.5177  -0.5056  -0.4757  -0.4687  -0.4612
 -0.4581  -0.4523  -0.4389  -0.4380  -0.4188  -0.4093  -0.3982  -0.3945
 -0.3800  -0.3663  -0.3507  -0.3372  -0.3299  -0.3019  -0.2922  -0.2915
 -0.2796  -0.2306

          Ground-State Mulliken Net Atomic Charges

     Atom                 Charge (a.u.)
  ----------------------------------------
      1 C                    -0.367941
      2 C                    -0.056379
      3 C                    -0.193129
      4 S                     0.298903
      5 C                    -0.193076
      6 C                    -0.056467
      7 C                    -0.367925
      8 C                     0.006137
      9 C                     0.511802
     10 O                    -0.438620
     11 O                    -0.559514
     12 C                     0.006206
     13 C                     0.511986
     14 O                    -0.438647
     15 O                    -0.559607
     16 H                     0.163865
     17 H                     0.162104
     18 H                     0.189778
     19 H                     0.189767
     20 H                     0.162109
     21 H                     0.163862
     22 H                     0.432378
     23 H                     0.432411
  ----------------------------------------
  Sum of atomic charges =     0.000000

                    Cartesian Multipole Moments
 -----------------------------------------------------------------
    Charge (ESU x 10^10)
                 0.0000
    Dipole Moment (Debye)
         X      -0.0006      Y      -4.1581      Z      -0.0024
       Tot       4.1581
    Quadrupole Moments (Debye-Ang)
        XX     -97.2040     XY      -0.0039     YY     -94.6458
        XZ       3.1087     YZ       0.0049     ZZ     -91.3563

 Total job time:  43.26s(wall), 43.13s(cpu)
        *  Thank you very much for using Q-Chem.  Have a nice day.  *
