 Q-Chem 5.2, Q-Chem, Inc., Pleasanton, CA (2019)
 Q-Chem 5.2.1 for Intel X86 EM64T Linux

User input:
--------------------------------------------------------------
$molecule
0 1
C         1.13877767890000    1.55716969750000    2.09974800710000
C         1.68565087410000    0.36669064200000    1.89386267260000
C         1.61616133420000   -0.40998821780000    0.66771243320000
C         2.65234509160000   -1.31439842230000    0.30524596030000
C         2.45681215610000   -1.90842881950000   -0.89489857820000
S         0.98597110800000   -1.40932545690000   -1.63047364770000
C         0.62031408290000   -0.36738369550000   -0.28334318890000
C        -0.62091450740000    0.36724585060000   -0.28220939280000
S        -0.98839895780000    1.41011879780000   -1.62809143300000
C        -2.45751253180000    1.90980603480000   -0.88936904650000
C        -2.65125136380000    1.31508995730000    0.31073599070000
C        -1.61506532320000    0.40973291550000    0.67060237270000
C        -1.68244930820000   -0.36783930800000    1.89632687130000
C        -1.13725077460000   -1.55955088910000    2.09926669790000
H         1.26189433710000    2.07503512090000    3.03521170270000
H         0.56169956230000    2.06258730740000    1.34519571890000
H         2.29223571750000   -0.08395498400000    2.66993255870000
H         3.51679173710000   -1.48763560540000    0.92176587270000
H         3.08383370850000   -2.61515545460000   -1.40113264410000
H        -3.08496163460000    2.61726747200000   -1.39402996420000
H        -3.51442507130000    1.48846006220000    0.92895780040000
H        -2.28561214890000    0.08336315290000    2.67483385310000
H        -0.56316961060000   -2.06509198320000    1.34248194200000
H        -1.25800168310000   -2.07801335610000    3.03473177220000
$end

$rem
BASIS = 6-31G*
GUI = 2
METHOD = B3LYP
PRINT_ORBITALS false
MOLDEN_FORMAT false
--------------------------------------------------------------

             Standard Nuclear Orientation (Angstroms)
    I     Atom           X                Y                Z
 ----------------------------------------------------------------
    1      C      -0.1200894230    -2.0423663576    -1.9249998580
    2      C      -1.2217211998    -1.8375610822    -1.2156609605
    3      C      -1.5822510233    -0.6117073958    -0.5237041388
    4      C      -2.9426389756    -0.2506567067    -0.3187564377
    5      C      -3.0986346170     0.9493973860     0.2870386508
    6      S      -1.5910344375     1.6866152004     0.6574436065
    7      C      -0.7208600528     0.3403223779    -0.0240256468
    8      C       0.7206615059     0.3407215172     0.0244068373
    9      S       1.5900245807     1.6874418492    -0.6571938250
   10      C       3.0980443540     0.9503616620    -0.2880299681
   11      C       2.9427100554    -0.2498344965     0.3176716788
   12      C       1.5825760036    -0.6111166957     0.5235046945
   13      C       1.2223879403    -1.8371387890     1.2153819208
   14      C       0.1219379112    -2.0411574119     1.9267107069
   15      H       0.0556988901    -2.9777058727    -2.4276658450
   16      H       0.6374628254    -1.2870253194    -2.0407140565
   17      H      -1.9746600162    -2.6144224343    -1.1619888162
   18      H      -3.7638891786    -0.8680859426    -0.6376689175
   19      H      -4.0079166158     1.4547001475     0.5454314899
   20      H       4.0070112063     1.4559540623    -0.5469359159
   21      H       3.7642666679    -0.8671474392     0.6359384094
   22      H       1.9743883909    -2.6148564421     1.1595897329
   23      H      -0.6347553580    -1.2851594494     2.0439562802
   24      H      -0.0541839757    -2.9767481499     2.4288362577
 ----------------------------------------------------------------

    9   -1259.6008973489      5.64e-06  Convergence criterion met
 Total energy in the final basis set =    -1259.6008973489

                    Orbital Energies (a.u.)
 --------------------------------------------------------------

 Alpha MOs
 -- Occupied --
-88.9077 -88.9077 -10.2203 -10.2199 -10.2113 -10.2112 -10.1952 -10.1952
-10.1896 -10.1895 -10.1873 -10.1873 -10.1740 -10.1740  -7.9690  -7.9690
 -5.9330  -5.9330  -5.9293  -5.9293  -5.9262  -5.9262  -0.8998  -0.8770
 -0.7931  -0.7847  -0.7639  -0.7214  -0.7183  -0.6941  -0.6142  -0.5937
 -0.5755  -0.5637  -0.5568  -0.4971  -0.4943  -0.4717  -0.4539  -0.4537
 -0.4189  -0.4106  -0.4059  -0.3927  -0.3866  -0.3779  -0.3740  -0.3605
 -0.3604  -0.3388  -0.3352  -0.3054  -0.2820  -0.2550  -0.2398  -0.2273
 -0.1992

          Ground-State Mulliken Net Atomic Charges

     Atom                 Charge (a.u.)
  ----------------------------------------
      1 C                    -0.341513
      2 C                    -0.107368
      3 C                     0.200939
      4 C                    -0.140614
      5 C                    -0.342969
      6 S                     0.262573
      7 C                    -0.271362
      8 C                    -0.271297
      9 S                     0.262618
     10 C                    -0.342981
     11 C                    -0.140552
     12 C                     0.200715
     13 C                    -0.107402
     14 C                    -0.341388
     15 H                     0.138851
     16 H                     0.162403
     17 H                     0.126566
     18 H                     0.141186
     19 H                     0.171273
     20 H                     0.171276
     21 H                     0.141193
     22 H                     0.126611
     23 H                     0.162374
     24 H                     0.138867
  ----------------------------------------
  Sum of atomic charges =     0.000000

                    Cartesian Multipole Moments
 -----------------------------------------------------------------
    Charge (ESU x 10^10)
                -0.0000
    Dipole Moment (Debye)
         X       0.0004      Y      -0.9776      Z      -0.0006
       Tot       0.9776
    Quadrupole Moments (Debye-Ang)
        XX     -81.0187     XY       0.0005     YY     -91.5343
        XZ      -1.7857     YZ       0.0015     ZZ     -98.2380

 Total job time:  47.62s(wall), 47.05s(cpu)
        *  Thank you very much for using Q-Chem.  Have a nice day.  *
