 Q-Chem 5.4, Q-Chem, Inc., Pleasanton, CA (2021)
 Q-Chem 5.4.2 for Intel X86 EM64T Linux

User input:
--------------------------------------------------------------
$molecule
0 1
C           -2.11782078990000       -2.26168253130000       -0.41284687290000
C           -1.18234353260000       -2.00234417580000        0.48838727780000
C           -0.03858637080000       -1.11127671620000        0.27936787720000
C            1.21649918970000       -1.54525739430000        0.69447127590000
C            2.36844483140000       -0.82340286090000        0.44499576790000
C            2.28579199220000        0.38151353470000       -0.24513704770000
O            3.34140214410000        1.17576635890000       -0.56914795760000
C            4.63235573380000        0.76648023690000       -0.18663732690000
C            1.03313979220000        0.84510942200000       -0.64061597310000
C           -0.12460882100000        0.13010079120000       -0.37077616210000
C           -1.39749463320000        0.75586139060000       -0.74568984710000
C           -2.45521581240000        0.85531279120000        0.03839104010000
F           -2.57924710420000        0.38513579660000        1.27316451980000
F           -3.58412998510000        1.47214064180000       -0.30973294830000
H           -2.91390905720000       -2.95848971570000       -0.21487011420000
H           -2.12080626430000       -1.79458371620000       -1.38400742550000
H           -1.19146875430000       -2.52257433070000        1.43772304450000
H            1.29399012260000       -2.49073504850000        1.21168678230000
H            3.31581755180000       -1.21026748260000        0.78501728630000
H            5.30595540290000        1.54145654930000       -0.54870221340000
H            4.90313367530000       -0.19033715610000       -0.64449574390000
H            4.72342900800000        0.68849462660000        0.90148377610000
H            0.98041920220000        1.79665177180000       -1.14645876980000
H           -1.45251574460000        1.24921932110000       -1.70438689520000
$end

$rem
BASIS = 6-31G*
GUI = 2
METHOD = B3LYP
PRINT_ORBITALS false
MOLDEN_FORMAT false
$end
--------------------------------------------------------------

             Standard Nuclear Orientation (Angstroms)
    I     Atom           X                Y                Z
 ----------------------------------------------------------------
    1      C       2.3143929970     1.9139625307    -0.9868141187
    2      C       1.4019711776     1.9413155512    -0.0269519872
    3      C       0.2025417697     1.1014392374     0.0160322607
    4      C      -1.0088312475     1.7026854726     0.3430921978
    5      C      -2.2084972157     1.0173417610     0.3057248363
    6      C      -2.2209962762    -0.3216399234    -0.0709847835
    7      O      -3.3315601680    -1.1013132104    -0.1652759224
    8      C      -4.5813882404    -0.5295693838     0.1370971403
    9      C      -1.0129458891    -0.9466443337    -0.3717272159
   10      C       0.1929249437    -0.2633656760    -0.3130882559
   11      C       1.4128430150    -1.0416723106    -0.5547772537
   12      C       2.4933070944    -1.0158219729     0.2037586024
   13      F       2.6920695381    -0.2694074865     1.2828668543
   14      F       3.5711496374    -1.7697512810    -0.0106246260
   15      H       3.1556063382     2.5854136421    -0.9845561809
   16      H       2.2528882101     1.2262558383    -1.8142316080
   17      H       1.4776900950     2.6743916068     0.7660342825
   18      H      -1.0125847304     2.7482794284     0.6154227147
   19      H      -3.1184882059     1.5350376968     0.5639906987
   20      H      -5.3112548524    -1.3243150361    -0.0081263355
   21      H      -4.8156821780     0.3031270139    -0.5338556205
   22      H      -4.6250636358    -0.1845586456     1.1750969870
   23      H      -1.0337983583    -1.9937641193    -0.6309463670
   24      H       1.4022633107    -1.7551185503    -1.3649697822
 ----------------------------------------------------------------

    9    -700.0266855941      4.93e-06  Convergence criterion met
 Total energy in the final basis set =     -700.0266855941

                    Orbital Energies (a.u.)
 --------------------------------------------------------------

 Alpha MOs
 -- Occupied --
-24.7307 -24.7271 -19.1801 -10.3476 -10.2472 -10.2421 -10.2036 -10.1937
-10.1894 -10.1888 -10.1866 -10.1845 -10.1828 -10.1720  -1.2746  -1.2146
 -1.0706  -0.8686  -0.8026  -0.7877  -0.7480  -0.7310  -0.6948  -0.6388
 -0.6112  -0.6032  -0.5667  -0.5626  -0.5375  -0.5104  -0.5018  -0.4871
 -0.4792  -0.4735  -0.4452  -0.4415  -0.4316  -0.4314  -0.4223  -0.4116
 -0.4043  -0.3940  -0.3798  -0.3632  -0.3464  -0.3294  -0.3280  -0.2825
 -0.2677  -0.2304  -0.2057

          Ground-State Mulliken Net Atomic Charges

     Atom                 Charge (a.u.)
  ----------------------------------------
      1 C                    -0.334253
      2 C                    -0.140035
      3 C                     0.109486
      4 C                    -0.195399
      5 C                    -0.191635
      6 C                     0.382855
      7 O                    -0.504835
      8 C                    -0.215248
      9 C                    -0.233771
     10 C                     0.121196
     11 C                    -0.354936
     12 C                     0.584466
     13 F                    -0.234065
     14 F                    -0.250182
     15 H                     0.140116
     16 H                     0.147166
     17 H                     0.132840
     18 H                     0.130207
     19 H                     0.130888
     20 H                     0.170330
     21 H                     0.151624
     22 H                     0.151782
     23 H                     0.135932
     24 H                     0.165470
  ----------------------------------------
  Sum of atomic charges =     0.000000

                    Cartesian Multipole Moments
 -----------------------------------------------------------------
    Charge (ESU x 10^10)
                 0.0000
    Dipole Moment (Debye)
         X      -2.3315      Y       0.7634      Z      -0.1278
       Tot       2.4566
    Quadrupole Moments (Debye-Ang)
        XX     -69.7774     XY      -0.3259     YY     -76.9148
        XZ      -3.5719     YZ       2.7487     ZZ     -79.7773

 Total job time:  52.40s(wall), 51.09s(cpu)
        *  Thank you very much for using Q-Chem.  Have a nice day.  *
