 Q-Chem 5.2, Q-Chem, Inc., Pleasanton, CA (2019)
 Q-Chem 5.2.1 for Intel X86 EM64T Linux

User input:
--------------------------------------------------------------
$molecule
0 1
C        -3.77402763900000    1.36646930630000    1.60515157850000
C        -2.57419194670000    0.91813184280000    1.26098550750000
C        -2.32492867000000   -0.19896599990000    0.35130553390000
C        -3.23067642900000   -1.25314934060000    0.24318770900000
C        -2.98270383920000   -2.32704826860000   -0.58931238590000
C        -1.81361778670000   -2.37175445000000   -1.33144128830000
C        -0.89946261700000   -1.33981868950000   -1.23060168070000
C        -1.13888136240000   -0.25200840750000   -0.39699041740000
C        -0.16507501080000    0.85654597860000   -0.36276770560000
C        -0.57891013800000    2.12980665030000   -0.73902718960000
C         0.31207802150000    3.18593527820000   -0.77344176820000
C         1.63678142290000    2.97848681430000   -0.42466614490000
C         2.06323555470000    1.72175854920000   -0.04150649100000
C         1.17715348690000    0.64482865600000   -0.00649922060000
C         1.59104541060000   -0.67837354310000    0.44464653350000
C         2.81888863310000   -1.17167868860000    0.46503420960000
F         3.94060092980000   -0.58825674970000    0.05504041630000
F         3.10828664590000   -2.39539126750000    0.90742482110000
H        -3.89252746880000    2.19147047850000    2.28643350290000
H        -4.68241481440000    0.94282348490000    1.21036227980000
H        -1.68976221000000    1.40360596990000    1.65439440630000
H        -4.13089950090000   -1.23550414290000    0.83877306430000
H        -3.69794789990000   -3.13345838730000   -0.65634684250000
H        -1.61361445960000   -3.20842757020000   -1.98389918340000
H         0.00951326880000   -1.36232459660000   -1.81498800610000
H        -1.61202329120000    2.28142486750000   -1.01669352490000
H        -0.02545214980000    4.16744589990000   -1.07078498550000
H         2.33831254380000    3.79879985960000   -0.44547178130000
H         3.09182898310000    1.57896803390000    0.24828041550000
H         0.81484454010000   -1.34460819080000    0.79240959920000
$end

$rem
BASIS = 6-31G*
GUI = 2
METHOD = B3LYP
PRINT_ORBITALS false
MOLDEN_FORMAT false
--------------------------------------------------------------

             Standard Nuclear Orientation (Angstroms)
    I     Atom           X                Y                Z
 ----------------------------------------------------------------
    1      C      -3.6523960646    -1.5005926063    -1.5370106077
    2      C      -2.4666086343    -1.0004023870    -1.2164168322
    3      C      -2.2494979642     0.1422230907    -0.3305119840
    4      C      -3.1937068119     1.1628869593    -0.2300833918
    5      C      -2.9771565318     2.2608593451     0.5794648384
    6      C      -1.8017903113     2.3640546587     1.3056749482
    7      C      -0.8499478295     1.3660754763     1.2120098221
    8      C      -1.0574301597     0.2545101854     0.4014951891
    9      C      -0.0422383836    -0.8164940159     0.3750662261
   10      C      -0.4022872577    -2.0973669618     0.7797299809
   11      C       0.5289667918    -3.1178713448     0.8220223182
   12      C       1.8404221820    -2.8665480885     0.4526447572
   13      C       2.2136317823    -1.6018397961     0.0412229439
   14      C       1.2864735738    -0.5603766993    -0.0021038317
   15      C       1.6437578948     0.7689937124    -0.4825466462
   16      C       2.8514082407     1.3083600169    -0.5275936726
   17      F       3.9995664981     0.7759723510    -0.1213787845
   18      F       3.0882272605     2.5337404372    -0.9958806743
   19      H      -3.7473177498    -2.3421189296    -2.2015687505
   20      H      -4.5715630934    -1.1046333131    -1.1384508958
   21      H      -1.5689877025    -1.4590231167    -1.6121633899
   22      H      -4.0997012374     1.0997371766    -0.8137108873
   23      H      -3.7219926179     3.0404804388     0.6409068382
   24      H      -1.6262270738     3.2198155527     1.9401632362
   25      H       0.0644705827     1.4342062998     1.7842407304
   26      H      -1.4253908608    -2.2831056277     1.0732766215
   27      H       0.2330014920    -4.1058206745     1.1414958998
   28      H       2.5731493941    -3.6589397932     0.4794495969
   29      H       3.2324123593    -1.4253202107    -0.2642226244
   30      H       0.8383995781     1.3984778336    -0.8324655936
 ----------------------------------------------------------------

    9    -816.5639410804      4.76e-06  Convergence criterion met
 Total energy in the final basis set =     -816.5639410804

                    Orbital Energies (a.u.)
 --------------------------------------------------------------

 Alpha MOs
 -- Occupied --
-24.7402 -24.7308 -10.3530 -10.2054 -10.1978 -10.1969 -10.1967 -10.1961
-10.1890 -10.1885 -10.1885 -10.1884 -10.1879 -10.1877 -10.1875 -10.1872
-10.1871 -10.1794  -1.2813  -1.2206  -0.8821  -0.8570  -0.8054  -0.7939
 -0.7790  -0.7384  -0.7312  -0.7194  -0.6450  -0.6315  -0.6226  -0.6056
 -0.5843  -0.5668  -0.5587  -0.5314  -0.5161  -0.5141  -0.4932  -0.4763
 -0.4688  -0.4527  -0.4449  -0.4388  -0.4355  -0.4318  -0.4241  -0.4188
 -0.4168  -0.4055  -0.3818  -0.3760  -0.3704  -0.3597  -0.3503  -0.3433
 -0.3310  -0.2994  -0.2915  -0.2665  -0.2430  -0.2271  -0.2182

          Ground-State Mulliken Net Atomic Charges

     Atom                 Charge (a.u.)
  ----------------------------------------
      1 C                    -0.344382
      2 C                    -0.128977
      3 C                     0.136084
      4 C                    -0.199899
      5 C                    -0.121297
      6 C                    -0.132632
      7 C                    -0.159322
      8 C                    -0.014075
      9 C                    -0.005969
     10 C                    -0.160793
     11 C                    -0.133040
     12 C                    -0.123669
     13 C                    -0.206802
     14 C                     0.161502
     15 C                    -0.317980
     16 C                     0.547927
     17 F                    -0.237579
     18 F                    -0.249117
     19 H                     0.143793
     20 H                     0.142303
     21 H                     0.149678
     22 H                     0.131197
     23 H                     0.129808
     24 H                     0.131146
     25 H                     0.140232
     26 H                     0.143521
     27 H                     0.130251
     28 H                     0.130495
     29 H                     0.137743
     30 H                     0.179854
  ----------------------------------------
  Sum of atomic charges =     0.000000

                    Cartesian Multipole Moments
 -----------------------------------------------------------------
    Charge (ESU x 10^10)
                 0.0000
    Dipole Moment (Debye)
         X      -1.0425      Y      -0.5315      Z       0.2204
       Tot       1.1907
    Quadrupole Moments (Debye-Ang)
        XX     -98.3372     XY      -4.4569     YY     -95.0341
        XZ       0.9813     YZ       2.3779     ZZ    -102.5254

 Total job time:  71.16s(wall), 70.92s(cpu)
        *  Thank you very much for using Q-Chem.  Have a nice day.  *
