 Q-Chem 5.2, Q-Chem, Inc., Pleasanton, CA (2019)
 Q-Chem 5.2.1 for Intel X86 EM64T Linux

User input:
--------------------------------------------------------------
$molecule
0 1
C         2.40636671930000   -2.93072549120000   -0.08850738530000
C         2.37911229330000   -1.60909845130000    0.04654775230000
C         1.20386467560000   -0.75188115740000    0.02376247010000
C        -0.09334431430000   -1.25790302370000    0.03206071410000
C        -1.21642415950000   -0.44600942170000    0.01582942460000
O        -2.48932164730000   -0.94180601950000    0.02542120900000
C        -2.67873644070000   -2.33411445450000    0.04600236970000
C        -1.05339995730000    0.95384517170000   -0.00883131190000
C        -2.13499310570000    1.92649517970000   -0.02709676260000
C        -3.44654574830000    1.71103822000000   -0.02667290420000
C         0.24993572550000    1.45788157140000   -0.01403159220000
C         1.36977318600000    0.64626394450000    0.00318893610000
O         2.65520982140000    1.11376814760000   -0.00430664250000
C         2.86830687200000    2.50190008830000   -0.02107292830000
H         3.33529274800000   -3.47361184090000   -0.05614639590000
H         1.52272852620000   -3.52657856150000   -0.24273111740000
H         3.30922175880000   -1.07406522720000    0.17771508260000
H        -0.20969528750000   -2.32781653800000    0.06155187870000
H        -3.75826010590000   -2.48162214340000    0.04667456080000
H        -2.25478719100000   -2.78830879260000    0.94775889070000
H        -2.25216841210000   -2.81455256070000   -0.84080589480000
H        -1.78722379760000    2.95398996510000   -0.04336671720000
H        -3.87274817910000    0.72666654350000   -0.01146621160000
H        -4.13668529280000    2.53883227370000   -0.04184682380000
H         0.36387082280000    2.53086319220000   -0.03172463350000
H         2.44626937550000    2.98705397480000    0.86543083560000
H         2.45193407870000    2.96403699710000   -0.92236945190000
H         3.94980797720000    2.63208007950000   -0.01955678000000
$end

$rem
BASIS = 6-31G*
GUI = 2
METHOD = B3LYP
PRINT_ORBITALS false
MOLDEN_FORMAT false
--------------------------------------------------------------

             Standard Nuclear Orientation (Angstroms)
    I     Atom           X                Y                Z
 ----------------------------------------------------------------
    1      C      -2.3008135521    -3.0121747596     0.0928776927
    2      C      -2.3221517509    -1.6910231311    -0.0477771405
    3      C      -1.1795939025    -0.7906967828    -0.0249374681
    4      C       0.1355134762    -1.2482629384    -0.0269247436
    5      C       1.2276429266    -0.3951919505    -0.0106100952
    6      O       2.5180806937    -0.8434475438    -0.0140123591
    7      C       2.7590800434    -2.2278420207    -0.0279970697
    8      C       1.0127222956     0.9977398009     0.0075057325
    9      C       2.0574238335     2.0099240654     0.0250304201
   10      C       3.3760601873     1.8432853536     0.0297124846
   11      C      -0.3084235170     1.4530815638     0.0063841150
   12      C      -1.3973197621     0.6004025406    -0.0109106157
   13      O      -2.6992314722     1.0199113963    -0.0095227026
   14      C      -2.9637289671     2.3992375217     0.0005897132
   15      H      -3.2088486924    -3.5892888461     0.0598942989
   16      H      -1.3962011508    -3.5741766240     0.2524790869
   17      H      -3.2710241796    -1.1914267248    -0.1842087424
   18      H       0.2915703698    -2.3132359271    -0.0514397410
   19      H       3.8433286870    -2.3351901408    -0.0245950335
   20      H       2.3552881051    -2.7012236880    -0.9291364340
   21      H       2.3476646467    -2.7200648198     0.8595073204
   22      H       1.6717268830     3.0238650241     0.0357696825
   23      H       3.8385326500     0.8753524072     0.0201007465
   24      H       4.0349634404     2.6961755189     0.0435220080
   25      H      -0.4621405747     2.5211608173     0.0190956496
   26      H      -2.5570169073     2.8960059643    -0.8866449121
   27      H      -2.5678013171     2.8802731447     0.9012107625
   28      H      -4.0493035975     2.4891874968    -0.0049323503
 ----------------------------------------------------------------

    8    -616.0865872447      6.42e-06  Convergence criterion met
 Total energy in the final basis set =     -616.0865872447

                    Orbital Energies (a.u.)
 --------------------------------------------------------------

 Alpha MOs
 -- Occupied --
-19.1767 -19.1753 -10.2409 -10.2397 -10.2388 -10.2388 -10.1925 -10.1896
-10.1828 -10.1817 -10.1813 -10.1804 -10.1723 -10.1650  -1.0667  -1.0650
 -0.8592  -0.8043  -0.7594  -0.7552  -0.7224  -0.7167  -0.6743  -0.6335
 -0.5982  -0.5644  -0.5593  -0.5240  -0.5138  -0.4949  -0.4719  -0.4685
 -0.4609  -0.4529  -0.4401  -0.4316  -0.4171  -0.4113  -0.3903  -0.3894
 -0.3678  -0.3635  -0.3515  -0.3489  -0.3282  -0.3084  -0.3063  -0.3010
 -0.2548  -0.2223  -0.1891

          Ground-State Mulliken Net Atomic Charges

     Atom                 Charge (a.u.)
  ----------------------------------------
      1 C                    -0.355495
      2 C                    -0.100746
      3 C                     0.118957
      4 C                    -0.289678
      5 C                     0.332841
      6 O                    -0.517975
      7 C                    -0.212928
      8 C                     0.158103
      9 C                    -0.116035
     10 C                    -0.356135
     11 C                    -0.300305
     12 C                     0.322078
     13 O                    -0.516766
     14 C                    -0.212057
     15 H                     0.141330
     16 H                     0.134558
     17 H                     0.149782
     18 H                     0.129737
     19 H                     0.167518
     20 H                     0.153099
     21 H                     0.152068
     22 H                     0.117881
     23 H                     0.169442
     24 H                     0.130505
     25 H                     0.130947
     26 H                     0.150581
     27 H                     0.150895
     28 H                     0.167799
  ----------------------------------------
  Sum of atomic charges =     0.000000

                    Cartesian Multipole Moments
 -----------------------------------------------------------------
    Charge (ESU x 10^10)
                 0.0000
    Dipole Moment (Debye)
         X      -0.0643      Y       0.0373      Z      -0.0308
       Tot       0.0805
    Quadrupole Moments (Debye-Ang)
        XX     -77.6128     XY      -9.4495     YY     -69.4110
        XZ       0.2317     YZ      -0.0483     ZZ     -86.7701

 Total job time:  37.14s(wall), 37.02s(cpu)
        *  Thank you very much for using Q-Chem.  Have a nice day.  *
