 Q-Chem 5.2, Q-Chem, Inc., Pleasanton, CA (2019)
 Q-Chem 5.2.1 for Intel X86 EM64T Linux

User input:
--------------------------------------------------------------
$molecule
0 1
C         1.37413875100000   -4.19513693800000    1.57932941910000
C         2.45848987510000   -3.42393807010000    1.54390628900000
C         2.52693652620000   -2.11104895510000    0.96151495510000
C         1.55867577230000   -1.36907091560000    0.33412663700000
C         1.99953497870000   -0.11397091180000   -0.12132027800000
C         1.09075386810000    0.86602297350000   -0.79553350770000
C         0.56184397270000    1.89587598630000    0.21037008140000
C        -0.29028136650000    2.98697078660000   -0.43819716890000
C        -1.57138532410000    2.49234005970000   -1.11206876190000
C        -2.54586533590000    1.82071782330000   -0.14710982630000
C        -3.87132871430000    1.47978577630000   -0.82472722330000
C        -4.83604510560000    0.78958496610000    0.13692571530000
C        -6.22503715460000    0.55126423320000   -0.45737462450000
C        -6.25812257730000   -0.38114275890000   -1.66965445790000
C        -5.77407228900000   -1.79228052520000   -1.35735380990000
C         3.32851123610000    0.11802193840000    0.16924115100000
C         4.10678881280000    1.28586543670000   -0.13568841650000
C         5.37280687670000    1.47522042080000    0.22795453940000
S         4.02908537370000   -1.23948572240000    1.00191857890000
H         1.39649627840000   -5.17025395450000    2.03259062980000
H         0.43379785710000   -3.88220555770000    1.15999366580000
H         3.38447980230000   -3.77857345120000    1.97798721450000
H         0.55036427800000   -1.71725743080000    0.19661059960000
H         0.25554972140000    0.32011426580000   -1.23567410560000
H         1.61858642030000    1.38366800300000   -1.59953613080000
H         1.41346956600000    2.36997429860000    0.70497456100000
H        -0.01342873590000    1.38115040250000    0.98151079520000
H         0.31532786720000    3.50802591670000   -1.18462175080000
H        -0.55930055090000    3.71444488290000    0.33181794840000
H        -1.32343044210000    1.80069744880000   -1.91942179400000
H        -2.06815271000000    3.35326132580000   -1.56729900580000
H        -2.73229050020000    2.48770070630000    0.69826860840000
H        -2.10571364870000    0.90248416160000    0.24614480310000
H        -3.67358101540000    0.83170169170000   -1.68049484440000
H        -4.33214055640000    2.39630001090000   -1.20154471930000
H        -4.95029245330000    1.41590566100000    1.02579887900000
H        -4.40680520130000   -0.15896492070000    0.46405915280000
H        -6.65059685200000    1.51484894410000   -0.74939247260000
H        -6.86659793470000    0.13150261480000    0.32184840920000
H        -5.65656599390000    0.04048783570000   -2.47657357940000
H        -7.28944932070000   -0.43373974140000   -2.02762123980000
H        -4.71638159090000   -1.79696479180000   -1.10740941270000
H        -5.91958745350000   -2.44038579810000   -2.21888185720000
H        -6.32849555880000   -2.20782274660000   -0.51839900010000
H         3.58925455720000    2.04903718700000   -0.70193093660000
H         5.91070281910000    0.73555806780000    0.79781046530000
H         5.90717992630000    2.37224419800000   -0.03005325590000
$end

$rem
BASIS = 6-31G*
GUI = 2
METHOD = B3LYP
PRINT_ORBITALS false
MOLDEN_FORMAT false
--------------------------------------------------------------

             Standard Nuclear Orientation (Angstroms)
    I     Atom           X                Y                Z
 ----------------------------------------------------------------
    1      C      -2.2694253073    -4.1855030477    -0.3771023484
    2      C      -3.2314085617    -3.2655567593    -0.3667632462
    3      C      -3.0416819950    -1.8665120526    -0.0943294438
    4      C      -1.8988484249    -1.1699719260     0.2064024689
    5      C      -2.1019041670     0.2046186361     0.4216555849
    6      C      -0.9807085291     1.1499826054     0.7217254241
    7      C      -0.5108529390     1.8568344014    -0.5556864903
    8      C       0.5639037761     2.9130401909    -0.2976704662
    9      C       1.8721774761     2.3757873315     0.2852267125
   10      C       2.5805425968     1.3779737876    -0.6282394646
   11      C       3.9512923386     0.9831777182    -0.0828640216
   12      C       4.6484397577    -0.0304035060    -0.9875572438
   13      C       6.0794728379    -0.3529674742    -0.5546769050
   14      C       6.2060998668    -1.0099781697     0.8209692633
   15      C       5.5101288490    -2.3631723654     0.9083533738
   16      C      -3.4233319511     0.5742341040     0.2745585534
   17      C      -3.9924897842     1.8856463883     0.4117213978
   18      C      -5.2698883295     2.1893172453     0.1950875720
   19      S      -4.4131571390    -0.8006682213    -0.1215128588
   20      H      -2.4854526019    -5.2175672904    -0.5891740039
   21      H      -1.2407952986    -3.9420465839    -0.1754621366
   22      H      -4.2535166863    -3.5545618518    -0.5751400364
   23      H      -0.9310401350    -1.6338361952     0.2772094832
   24      H      -0.1544762566     0.5839623998     1.1533124818
   25      H      -1.2980758218     1.8969654009     1.4526689940
   26      H      -1.3710316421     2.3447974006    -1.0211471894
   27      H      -0.1411449019     1.1121045787    -1.2622504116
   28      H       0.1610797388     3.6634894342     0.3878726595
   29      H       0.7833861513     3.4162747947    -1.2427078113
   30      H       1.6839503655     1.9116032135     1.2551616086
   31      H       2.5388450806     3.2246679953     0.4588750951
   32      H       2.6991599372     1.8200087058    -1.6206205726
   33      H       1.9729114798     0.4777058596    -0.7370413590
   34      H       3.8256365003     0.5632897145     0.9168159418
   35      H       4.5761286256     1.8752163991     0.0076010410
   36      H       4.6841811587     0.3745369245    -2.0025308250
   37      H       4.0590887017    -0.9480627177    -1.0272683635
   38      H       6.6610562957     0.5725717545    -0.5517117270
   39      H       6.5240420822    -1.0178177070    -1.2998754974
   40      H       5.8055935594    -0.3438041124     1.5868465205
   41      H       7.2694019418    -1.1464261372     1.0338357956
   42      H       4.4325378924    -2.2558083658     0.8162965508
   43      H       5.7211915481    -2.8348827441     1.8656347012
   44      H       5.8598164530    -3.0227717947     0.1168024625
   45      H      -3.2983626124     2.6596740637     0.7116748021
   46      H      -5.9817233437     1.4404093345    -0.1108471777
   47      H      -5.6409790486     3.1917164195     0.3145103890
 ----------------------------------------------------------------

    9   -1100.9362234884      2.44e-06  Convergence criterion met
 Total energy in the final basis set =    -1100.9362234884

                    Orbital Energies (a.u.)
 --------------------------------------------------------------

 Alpha MOs
 -- Occupied --
-88.8988 -10.2156 -10.2105 -10.1973 -10.1948 -10.1923 -10.1872 -10.1835
-10.1815 -10.1784 -10.1780 -10.1757 -10.1744 -10.1740 -10.1735 -10.1731
-10.1718 -10.1716 -10.1679  -7.9607  -5.9246  -5.9212  -5.9177  -0.8884
 -0.8191  -0.8083  -0.7996  -0.7804  -0.7675  -0.7486  -0.7196  -0.7020
 -0.6849  -0.6527  -0.6232  -0.6219  -0.5958  -0.5796  -0.5578  -0.5487
 -0.5358  -0.5242  -0.4906  -0.4795  -0.4690  -0.4586  -0.4579  -0.4523
 -0.4425  -0.4282  -0.4210  -0.4118  -0.4104  -0.4026  -0.3937  -0.3880
 -0.3843  -0.3742  -0.3687  -0.3654  -0.3608  -0.3538  -0.3507  -0.3460
 -0.3377  -0.3329  -0.3267  -0.3191  -0.3181  -0.3144  -0.3131  -0.3088
 -0.2949  -0.2674  -0.2434  -0.1939

          Ground-State Mulliken Net Atomic Charges

     Atom                 Charge (a.u.)
  ----------------------------------------
      1 C                    -0.341727
      2 C                    -0.088257
      3 C                    -0.128098
      4 C                    -0.161994
      5 C                     0.155429
      6 C                    -0.350499
      7 C                    -0.258295
      8 C                    -0.256862
      9 C                    -0.259649
     10 C                    -0.255749
     11 C                    -0.255454
     12 C                    -0.256653
     13 C                    -0.251298
     14 C                    -0.252524
     15 C                    -0.444085
     16 C                    -0.202678
     17 C                    -0.054482
     18 C                    -0.378154
     19 S                     0.233025
     20 H                     0.146487
     21 H                     0.141701
     22 H                     0.137153
     23 H                     0.130213
     24 H                     0.147129
     25 H                     0.145074
     26 H                     0.141987
     27 H                     0.143941
     28 H                     0.124749
     29 H                     0.130061
     30 H                     0.132392
     31 H                     0.129284
     32 H                     0.129118
     33 H                     0.130177
     34 H                     0.132069
     35 H                     0.127927
     36 H                     0.127337
     37 H                     0.130705
     38 H                     0.125669
     39 H                     0.125111
     40 H                     0.135276
     41 H                     0.130333
     42 H                     0.144017
     43 H                     0.142455
     44 H                     0.142188
     45 H                     0.136310
     46 H                     0.155172
     47 H                     0.143971
  ----------------------------------------
  Sum of atomic charges =     0.000000

                    Cartesian Multipole Moments
 -----------------------------------------------------------------
    Charge (ESU x 10^10)
                -0.0000
    Dipole Moment (Debye)
         X       1.2632      Y       0.3540      Z       0.0782
       Tot       1.3142
    Quadrupole Moments (Debye-Ang)
        XX    -128.2404     XY      -0.8317     YY    -119.8697
        XZ       0.8991     YZ       1.6147     ZZ    -130.0650

 Total job time:  84.27s(wall), 84.04s(cpu)
        *  Thank you very much for using Q-Chem.  Have a nice day.  *
