 Q-Chem 5.2, Q-Chem, Inc., Pleasanton, CA (2019)
 Q-Chem 5.2.1 for Intel X86 EM64T Linux

User input:
--------------------------------------------------------------
$molecule
0 1
C         5.90100413250000   -0.85535471000000   -0.14898628810000
C         5.04502062110000    0.13259702280000    0.08856634290000
C         3.58971787120000    0.06049279500000    0.03717184450000
C         2.84171098810000    1.10075171120000    0.60488006770000
F         3.48326254230000    2.11946090240000    1.19207755300000
C         1.45598269870000    1.11045031020000    0.59505741540000
F         0.79648911940000    2.11306587910000    1.18404045840000
C         0.73684475000000    0.07192036310000    0.00735053260000
C        -0.73685046190000    0.07188378930000   -0.00763891350000
C        -1.45608257850000    1.11041043850000   -0.59523528530000
F        -0.79668441150000    2.11302283150000   -1.18433237230000
C        -2.84181654780000    1.10070934670000   -0.60482457650000
F        -3.48347979050000    2.11941147090000   -1.19191881160000
C        -3.58972107740000    0.06043974010000   -0.03700532040000
C        -5.04503953800000    0.13255305540000   -0.08803097230000
C        -5.90089992000000   -0.85557428180000    0.14920837570000
C        -2.85423110410000   -0.97162857630000    0.55579598700000
F        -3.47453525360000   -1.99444233010000    1.15548928680000
C        -1.46624924170000   -0.96527198450000    0.56809247160000
F        -0.81385192840000   -1.96221272730000    1.17574116440000
C         1.46633888680000   -0.96521575060000   -0.56829241590000
F         0.81403968340000   -1.96215741850000   -1.17604119610000
C         2.85432140440000   -0.97156115780000   -0.55577994500000
F         3.47471730930000   -1.99439669140000   -1.15534042010000
H         6.96081980040000   -0.68355726080000   -0.07318935180000
H         5.59946707100000   -1.85265503980000   -0.41340303820000
H         5.42288786190000    1.10442074290000    0.37672761910000
H        -5.42301295070000    1.10454589370000   -0.37544990010000
H        -5.59921418950000   -1.85297914830000    0.41302407130000
H        -6.96074853240000   -0.68382179370000    0.07372575180000
$end

$rem
BASIS = 6-31G*
GUI = 2
METHOD = B3LYP
PRINT_ORBITALS false
MOLDEN_FORMAT false
--------------------------------------------------------------

             Standard Nuclear Orientation (Angstroms)
    I     Atom           X                Y                Z
 ----------------------------------------------------------------
    1      C       5.9010810101    -0.8456343375    -0.1458426668
    2      C       5.0449721744     0.1423191505     0.0912506012
    3      C       3.5896969433     0.0702165297     0.0390804780
    4      C       2.8413887717     1.1104780690     0.6063866976
    5      F       3.4826284237     2.1291882594     1.1939230422
    6      C       1.4556659276     1.1201783164     0.5958252587
    7      F       0.7958596596     2.1227964656     1.1844535970
    8      C       0.7368401397     0.0816474625     0.0077382137
    9      C      -0.7368468716     0.0816126280    -0.0080368856
   10      C      -1.4557643676     1.1201383708    -0.5960197513
   11      F      -0.7960510194     2.1227481833    -1.1847682487
   12      C      -2.8414930395     1.1104389282    -0.6063477735
   13      F      -3.4828419644     2.1291400535    -1.1937870891
   14      C      -3.5897014398     0.0701719449    -0.0389241745
   15      C      -5.0449924034     0.1422868683    -0.0907258957
   16      C      -5.9009803389    -0.8458387148     0.1460601311
   17      C      -2.8545288564    -0.9618954691     0.5542722739
   18      F      -3.4751538662    -1.9847066577     1.1536378855
   19      C      -1.4665537391    -0.9555405210     0.5673086976
   20      F      -0.8144816767    -1.9524802158     1.1753081247
   21      C       1.4666398016    -0.9554912759    -0.5675126089
   22      F       0.8146634846    -1.9524339922    -1.1756060411
   23      C       2.8546154436    -0.9618383262    -0.5542601602
   24      F       3.4753296574    -1.9846764247    -1.1534867117
   25      H       6.9608563269    -0.6738379425    -0.0694812525
   26      H       5.5996837478    -1.8429351019    -0.4104171185
   27      H       5.4226869156     1.1141432846     0.3796103458
   28      H      -5.4228113551     1.1142792949    -0.3783492272
   29      H      -5.5994365060    -1.8432431487     0.4100396401
   30      H      -6.9607883511    -0.6740851716     0.0700119726
 ----------------------------------------------------------------

    9   -1411.9288454161      4.26e-06  Convergence criterion met
 Total energy in the final basis set =    -1411.9288454161

                    Orbital Energies (a.u.)
 --------------------------------------------------------------

 Alpha MOs
 -- Occupied --
-24.7336 -24.7336 -24.7329 -24.7329 -24.7325 -24.7325 -24.7325 -24.7325
-10.3010 -10.3010 -10.3009 -10.3009 -10.2992 -10.2992 -10.2983 -10.2983
-10.2411 -10.2408 -10.2366 -10.2366 -10.2114 -10.2114 -10.1973 -10.1973
 -1.2559  -1.2547  -1.2539  -1.2529  -1.2411  -1.2405  -1.2389  -1.2387
 -0.9135  -0.8975  -0.8418  -0.8149  -0.7785  -0.7747  -0.7735  -0.7461
 -0.6927  -0.6587  -0.6569  -0.6472  -0.6101  -0.6079  -0.5917  -0.5812
 -0.5757  -0.5631  -0.5605  -0.5538  -0.5396  -0.5379  -0.5177  -0.5168
 -0.5083  -0.4985  -0.4959  -0.4901  -0.4861  -0.4789  -0.4788  -0.4696
 -0.4656  -0.4645  -0.4600  -0.4433  -0.4413  -0.4379  -0.4356  -0.4175
 -0.4139  -0.4087  -0.4039  -0.3879  -0.3866  -0.3700  -0.3658  -0.3622
 -0.3590  -0.3282  -0.3103  -0.2578  -0.2526  -0.2519  -0.2392

          Ground-State Mulliken Net Atomic Charges

     Atom                 Charge (a.u.)
  ----------------------------------------
      1 C                    -0.341367
      2 C                    -0.107446
      3 C                     0.023352
      4 C                     0.244733
      5 F                    -0.271764
      6 C                     0.309998
      7 F                    -0.268998
      8 C                    -0.094248
      9 C                    -0.094247
     10 C                     0.309982
     11 F                    -0.268998
     12 C                     0.244746
     13 F                    -0.271763
     14 C                     0.023319
     15 C                    -0.107446
     16 C                    -0.341346
     17 C                     0.260705
     18 F                    -0.271909
     19 C                     0.310204
     20 F                    -0.269991
     21 C                     0.310193
     22 F                    -0.269990
     23 C                     0.260700
     24 F                    -0.271908
     25 H                     0.153095
     26 H                     0.167498
     27 H                     0.156153
     28 H                     0.156154
     29 H                     0.167495
     30 H                     0.153096
  ----------------------------------------
  Sum of atomic charges =     0.000000

                    Cartesian Multipole Moments
 -----------------------------------------------------------------
    Charge (ESU x 10^10)
                 0.0000
    Dipole Moment (Debye)
         X      -0.0001      Y      -0.2638      Z       0.0003
       Tot       0.2638
    Quadrupole Moments (Debye-Ang)
        XX    -106.9449     XY       0.0004     YY    -134.1364
        XZ       0.1188     YZ       0.0015     ZZ    -131.2656

 Total job time:  92.56s(wall), 92.31s(cpu)
        *  Thank you very much for using Q-Chem.  Have a nice day.  *
