 Q-Chem 5.2, Q-Chem, Inc., Pleasanton, CA (2019)
 Q-Chem 5.2.1 for Intel X86 EM64T Linux

User input:
--------------------------------------------------------------
$molecule
0 1
C         4.37041722930000   -0.10474384140000    0.42034068170000
C         3.22007011940000   -0.67915619600000    0.08875485280000
C         1.91901228300000   -0.03110671820000   -0.00498165630000
C         1.71193474770000    1.32141094250000    0.27318129640000
C         0.45465571390000    1.87088370110000    0.16745291550000
C        -0.65712900350000    1.10574569630000   -0.19439105840000
C        -1.95847747250000    1.77588690770000   -0.23706778960000
C        -3.10243395490000    1.29130882340000    0.22662119810000
C        -0.45389847640000   -0.24249587650000   -0.50630187800000
C        -1.57542545660000   -1.13375967550000   -0.99025502920000
C        -2.12489697390000   -1.87353769170000    0.11860612920000
N        -2.54039522410000   -2.45524364910000    1.01091457070000
C         0.81697777010000   -0.78514877050000   -0.40420720790000
H         5.28502116110000   -0.67067167650000    0.46344982890000
H         4.45351314800000    0.94113747900000    0.66085664530000
H         3.21160537460000   -1.73776258260000   -0.14183539890000
H         2.53857450340000    1.94637000020000    0.57188872640000
H         0.30993843640000    2.91883916370000    0.38933584040000
H        -1.93148498550000    2.78238181640000   -0.63902210640000
H        -3.17630603470000    0.32551268200000    0.69805986340000
H        -4.01125170660000    1.86808261670000    0.18467164780000
H        -1.19433991850000   -1.85325197300000   -1.72135953750000
H        -2.37287184870000   -0.54398798050000   -1.44997058540000
H         0.95948063580000   -1.83065743640000   -0.64435337110000
$end

$rem
BASIS = 6-31G*
GUI = 2
METHOD = B3LYP
PRINT_ORBITALS false
MOLDEN_FORMAT false
--------------------------------------------------------------

             Standard Nuclear Orientation (Angstroms)
    I     Atom           X                Y                Z
 ----------------------------------------------------------------
    1      C       4.3459435540     0.3633434986    -0.2945533853
    2      C       3.1571457588     0.8717109210     0.0079686042
    3      C       1.8903176056     0.1544454554     0.0546894195
    4      C       1.7641784916    -1.2035299745    -0.2445619997
    5      C       0.5354245168    -1.8201951116    -0.1834297669
    6      C      -0.6259731476    -1.1197227413     0.1526154819
    7      C      -1.8903810150    -1.8584177378     0.1480513335
    8      C      -3.0441594441    -1.4293696452    -0.3450743113
    9      C      -0.5044573816     0.2333527932     0.4854320407
   10      C      -1.6859739489     1.0577048219     0.9446127385
   11      C      -2.2406637746     1.7812463125    -0.1723341889
   12      N      -2.6596852500     2.3513209254    -1.0704827905
   13      C       0.7381234494     0.8438833902     0.4282727246
   14      H       5.2299094161     0.9774762275    -0.3034083986
   15      H       4.4919335884    -0.6735388544    -0.5439175621
   16      H       3.0852650773     1.9253824965     0.2498371149
   17      H       2.6315892103    -1.7799505267    -0.5246891680
   18      H       0.4535808999    -2.8714648954    -0.4211675182
   19      H      -1.8217549941    -2.8670603439     0.5395336842
   20      H      -3.1553208843    -0.4629739193    -0.8078875795
   21      H      -3.9217361591    -2.0540107169    -0.3373206093
   22      H      -1.3659371210     1.7871043356     1.6949206312
   23      H      -2.4642201293     0.4207158631     1.3731774853
   24      H       0.8173398593     1.8923619619     0.6841693091
 ----------------------------------------------------------------

    9    -518.5930308685      3.05e-06  Convergence criterion met
 Total energy in the final basis set =     -518.5930308685

                    Orbital Energies (a.u.)
 --------------------------------------------------------------

 Alpha MOs
 -- Occupied --
-14.3255 -10.2350 -10.2213 -10.2147 -10.2077 -10.2050 -10.2009 -10.1984
-10.1978 -10.1973 -10.1964 -10.1894 -10.1872  -0.9098  -0.8833  -0.8247
 -0.8020  -0.7758  -0.7389  -0.7201  -0.6426  -0.6197  -0.5847  -0.5639
 -0.5147  -0.5113  -0.5049  -0.4754  -0.4567  -0.4509  -0.4496  -0.4308
 -0.4126  -0.4012  -0.3859  -0.3690  -0.3606  -0.3537  -0.3468  -0.3275
 -0.3229  -0.3176  -0.2775  -0.2615  -0.2246

          Ground-State Mulliken Net Atomic Charges

     Atom                 Charge (a.u.)
  ----------------------------------------
      1 C                    -0.351622
      2 C                    -0.112147
      3 C                     0.187796
      4 C                    -0.178377
      5 C                    -0.184951
      6 C                     0.115536
      7 C                    -0.147322
      8 C                    -0.354857
      9 C                     0.117536
     10 C                    -0.447492
     11 C                     0.378873
     12 N                    -0.476796
     13 C                    -0.251344
     14 H                     0.148943
     15 H                     0.145071
     16 H                     0.131167
     17 H                     0.132286
     18 H                     0.134555
     19 H                     0.141394
     20 H                     0.178222
     21 H                     0.150117
     22 H                     0.201027
     23 H                     0.209571
     24 H                     0.132815
  ----------------------------------------
  Sum of atomic charges =     0.000000

                    Cartesian Multipole Moments
 -----------------------------------------------------------------
    Charge (ESU x 10^10)
                 0.0000
    Dipole Moment (Debye)
         X       1.7709      Y      -2.2820      Z       2.5936
       Tot       3.8821
    Quadrupole Moments (Debye-Ang)
        XX     -74.1304     XY       8.0311     YY     -75.1238
        XZ      -7.4369     YZ       7.2413     ZZ     -79.8062

 Total job time:  33.20s(wall), 33.08s(cpu)
        *  Thank you very much for using Q-Chem.  Have a nice day.  *
