 Q-Chem 5.2, Q-Chem, Inc., Pleasanton, CA (2019)
 Q-Chem 5.2.1 for Intel X86 EM64T Linux

User input:
--------------------------------------------------------------
$molecule
0 1
C        -2.14965179140000   -3.69294708060000    0.00826925040000
C        -2.51793654220000   -2.42104681990000   -0.09221974050000
C        -1.64379295410000   -1.25697306170000   -0.08410749960000
C        -2.20080688340000    0.01867818420000   -0.17884077010000
C        -1.44114159560000    1.17706126890000   -0.15898698080000
C        -2.14404466020000    2.46113227050000   -0.21896109660000
C        -1.84496726030000    3.55149192420000    0.47600283790000
C        -0.03234560870000    1.08196136430000   -0.09705785790000
N         0.74924983900000    2.20006867390000   -0.10546921150000
C         0.52750024300000   -0.20580538030000   -0.00541909590000
C         2.01657333900000   -0.34792897960000    0.06897371170000
F         2.56129823450000    0.30008275330000    1.12118647210000
F         2.43179393260000   -1.61540684670000    0.16154696930000
F         2.64424173720000    0.16494685830000   -1.02029455770000
C        -0.25851392970000   -1.34560893440000    0.01230174780000
H        -2.87668524250000   -4.48634147600000   -0.00760145410000
H        -1.12288128520000   -3.99859860770000    0.11060749510000
H        -3.57101055100000   -2.18700594390000   -0.19027093000000
H        -3.27557873710000    0.11459420760000   -0.25000090990000
H        -3.01616014730000    2.46599322910000   -0.86213284010000
H        -1.03615307200000    3.58025466310000    1.18666498570000
H        -2.43784978410000    4.44675601150000    0.39211126840000
H         0.31142048920000    3.04876310330000   -0.42568080620000
H         1.73003584360000    2.11153957960000   -0.30694501200000
H         0.22042053900000   -2.30775381450000    0.09019942690000
$end

$rem
BASIS = 6-31G*
GUI = 2
METHOD = B3LYP
PRINT_ORBITALS false
MOLDEN_FORMAT false
--------------------------------------------------------------

             Standard Nuclear Orientation (Angstroms)
    I     Atom           X                Y                Z
 ----------------------------------------------------------------
    1      C       3.7468233800    -1.9774658799    -0.1143948128
    2      C       3.3593531481    -0.7120651950    -0.0044407578
    3      C       1.9899595836    -0.2189968338     0.0256489750
    4      C       1.7579467700     1.1531413612     0.1253075899
    5      C       0.4869876160     1.7042856492     0.1407897046
    6      C       0.3712564335     3.1635094613     0.2022722998
    7      C      -0.4966876326     3.9098227640    -0.4692899745
    8      C      -0.6395941652     0.8513147671     0.1118154849
    9      N      -1.9059716025     1.3567907407     0.1555004576
   10      C      -0.4032107792    -0.5325008195     0.0151431211
   11      C      -1.5714090890    -1.4688618146    -0.0250176597
   12      F      -2.4119496301    -1.2275730229    -1.0541276775
   13      F      -1.2253554229    -2.7563234371    -0.1258517994
   14      F      -2.3464148497    -1.3834242717     1.0865492987
   15      C       0.8785014183    -1.0536968403    -0.0382703669
   16      H       4.7901030258    -2.2414603576    -0.1277619852
   17      H       3.0538199009    -2.7967460952    -0.1961245602
   18      H       4.1135106319     0.0617955167     0.0713228474
   19      H       2.6052725138     1.8234316566     0.1716561627
   20      H       1.1154434806     3.6471414959     0.8240155244
   21      H      -1.2083524126     3.4889628900    -1.1595497676
   22      H      -0.4902861186     4.9836993147    -0.3868676290
   23      H      -1.9968612035     2.3069118110     0.4772476747
   24      H      -2.6711041016     0.7446068288     0.3794964449
   25      H       1.0041745234    -2.1209113795    -0.1184479323
 ----------------------------------------------------------------

    9    -779.4352534941      3.41e-06  Convergence criterion met
 Total energy in the final basis set =     -779.4352534941

                    Orbital Energies (a.u.)
 --------------------------------------------------------------

 Alpha MOs
 -- Occupied --
-24.7255 -24.7199 -24.7172 -14.3517 -10.4286 -10.2481 -10.2060 -10.2025
-10.1998 -10.1993 -10.1956 -10.1916 -10.1887 -10.1886 -10.1751  -1.3047
 -1.2156  -1.2081  -0.9432  -0.8634  -0.8112  -0.7943  -0.7539  -0.7208
 -0.6948  -0.6434  -0.6310  -0.5994  -0.5866  -0.5780  -0.5584  -0.5454
 -0.5221  -0.5198  -0.4780  -0.4742  -0.4635  -0.4570  -0.4466  -0.4359
 -0.4226  -0.4195  -0.4133  -0.4020  -0.3959  -0.3935  -0.3846  -0.3786
 -0.3517  -0.3433  -0.3387  -0.3038  -0.2726  -0.2465  -0.1977

          Ground-State Mulliken Net Atomic Charges

     Atom                 Charge (a.u.)
  ----------------------------------------
      1 C                    -0.360607
      2 C                    -0.112959
      3 C                     0.185461
      4 C                    -0.274089
      5 C                     0.134781
      6 C                    -0.145113
      7 C                    -0.361807
      8 C                     0.257187
      9 N                    -0.830172
     10 C                    -0.029669
     11 C                     0.783851
     12 F                    -0.271861
     13 F                    -0.262386
     14 F                    -0.279674
     15 C                    -0.252273
     16 H                     0.142084
     17 H                     0.141252
     18 H                     0.124060
     19 H                     0.130566
     20 H                     0.141652
     21 H                     0.167879
     22 H                     0.147738
     23 H                     0.332852
     24 H                     0.341214
     25 H                     0.150034
  ----------------------------------------
  Sum of atomic charges =     0.000000

                    Cartesian Multipole Moments
 -----------------------------------------------------------------
    Charge (ESU x 10^10)
                 0.0000
    Dipole Moment (Debye)
         X       0.2475      Y       2.3881      Z       0.8210
       Tot       2.5373
    Quadrupole Moments (Debye-Ang)
        XX     -79.9111     XY      -4.0374     YY     -77.9865
        XZ      -0.9548     YZ       2.1146     ZZ     -88.4311

 Total job time:  41.92s(wall), 41.70s(cpu)
        *  Thank you very much for using Q-Chem.  Have a nice day.  *
