 Q-Chem 5.2, Q-Chem, Inc., Pleasanton, CA (2019)
 Q-Chem 5.2.1 for Intel X86 EM64T Linux

User input:
--------------------------------------------------------------
$molecule
0 1
C        -3.14314279250000   -2.00166167290000   -0.57829586270000
C        -1.98936220300000   -2.06929718330000    0.07393552400000
C        -0.96370864170000   -1.02634293850000    0.06689609340000
C         0.37638122410000   -1.40684782040000    0.07393369180000
C         1.40741628020000   -0.48065744390000   -0.01143943310000
C         2.81857581340000   -0.97020607110000    0.06728561570000
O         3.67509942370000   -0.44690858540000    0.72133776700000
O         3.07950545960000   -2.08281346100000   -0.64663624730000
C         1.11914430650000    0.89191280390000   -0.11179774490000
C         2.18110648890000    1.88354012590000   -0.23065962370000
C         2.07007955660000    3.15399519290000    0.13804273320000
C        -0.22291264060000    1.26830939980000   -0.12827362050000
C        -1.25071108160000    0.34521435140000   -0.01506728120000
C        -2.63803131750000    0.90421215130000    0.06515240890000
O        -3.05832461530000    1.73034750590000   -0.69335462840000
O        -3.37553820550000    0.47741960900000    1.10789216890000
H        -3.84469316170000   -2.81755297240000   -0.56339597830000
H        -3.42512818780000   -1.14041575600000   -1.16118312460000
H        -1.72020513630000   -2.97489764250000    0.60410177360000
H         0.60688159670000   -2.46069282100000    0.16920582110000
H         2.31884147010000   -2.38139122680000   -1.16302428530000
H         3.12279307810000    1.52367975560000   -0.61929773590000
H         1.17422364560000    3.55493984260000    0.58166299360000
H         2.89256162650000    3.83864389430000    0.02792912140000
H        -0.48580139300000    2.30956266460000   -0.23196521930000
H        -2.92850385240000   -0.20629471900000    1.62415963900000
$end

$rem
BASIS = 6-31G*
GUI = 2
METHOD = B3LYP
PRINT_ORBITALS false
MOLDEN_FORMAT false
--------------------------------------------------------------

             Standard Nuclear Orientation (Angstroms)
    I     Atom           X                Y                Z
 ----------------------------------------------------------------
    1      C       3.1759232932     1.9461977088    -0.5166646503
    2      C       2.0267539798     2.0159442235     0.1434378460
    3      C       0.9773433395     0.9976752496     0.1030157860
    4      C      -0.3535910045     1.4081767815     0.1308834316
    5      C      -1.4060227015     0.5095886686     0.0165269829
    6      C      -2.8051961310     1.0279958910     0.1204230161
    7      O      -3.6707852283     0.5005109040     0.7589935081
    8      O      -3.0434400407     2.1719835283    -0.5505434779
    9      C      -1.1498469819    -0.8645438747    -0.1359701021
   10      C      -2.2348442715    -1.8265583351    -0.2860555061
   11      C      -2.1515450395    -3.1120170476     0.0348519902
   12      C       0.1831088486    -1.2706359642    -0.1731274684
   13      C       1.2323504229    -0.3760984301    -0.0310553114
   14      C       2.6067597311    -0.9692383772     0.0214349971
   15      O       3.0047360449    -1.7760649434    -0.7692133139
   16      O       3.3582672661    -0.5983695707     1.0755067424
   17      H       3.8961255946     2.7447329405    -0.4751475628
   18      H       3.4355586930     1.1009414890    -1.1324156022
   19      H       1.7807430662     2.9071748396     0.7080798473
   20      H      -0.5593692109     2.4627551923     0.2662207542
   21      H      -2.2782792767     2.4720472923    -1.0593712834
   22      H      -3.1696209162    -1.4311117036    -0.6563625230
   23      H      -1.2633014210    -3.5495007192     0.4588150452
   24      H      -2.9900245434    -3.7731403442    -0.0963490598
   25      H       0.4215210735    -2.3130623887    -0.3165762947
   26      H       2.9292616930     0.0757650924     1.6189529403
 ----------------------------------------------------------------

    9    -764.1551040041      7.81e-06  Convergence criterion met
 Total energy in the final basis set =     -764.1551040041

                    Orbital Energies (a.u.)
 --------------------------------------------------------------

 Alpha MOs
 -- Occupied --
-19.2069 -19.2009 -19.1450 -19.1437 -10.3316 -10.3299 -10.2333 -10.2305
-10.2297 -10.2287 -10.2268 -10.2191 -10.2180 -10.2091 -10.2022 -10.1937
 -1.1165  -1.1126  -1.0341  -1.0315  -0.9039  -0.8391  -0.8006  -0.7921
 -0.7441  -0.6904  -0.6592  -0.6407  -0.6272  -0.6108  -0.5927  -0.5548
 -0.5447  -0.5139  -0.4941  -0.4698  -0.4630  -0.4620  -0.4589  -0.4519
 -0.4455  -0.4394  -0.4277  -0.4135  -0.4071  -0.3883  -0.3862  -0.3726
 -0.3661  -0.3397  -0.3285  -0.3227  -0.2994  -0.2906  -0.2843  -0.2697
 -0.2410

          Ground-State Mulliken Net Atomic Charges

     Atom                 Charge (a.u.)
  ----------------------------------------
      1 C                    -0.327025
      2 C                    -0.183890
      3 C                     0.134732
      4 C                    -0.273647
      5 C                     0.006041
      6 C                     0.533838
      7 O                    -0.428463
      8 O                    -0.561472
      9 C                     0.136842
     10 C                    -0.100388
     11 C                    -0.338969
     12 C                    -0.232953
     13 C                     0.009019
     14 C                     0.511712
     15 O                    -0.436319
     16 O                    -0.554481
     17 H                     0.161336
     18 H                     0.183630
     19 H                     0.146161
     20 H                     0.144330
     21 H                     0.416161
     22 H                     0.158437
     23 H                     0.150824
     24 H                     0.156863
     25 H                     0.170388
     26 H                     0.417295
  ----------------------------------------
  Sum of atomic charges =     0.000000

                    Cartesian Multipole Moments
 -----------------------------------------------------------------
    Charge (ESU x 10^10)
                -0.0000
    Dipole Moment (Debye)
         X       1.1945      Y       3.0430      Z      -0.0416
       Tot       3.2693
    Quadrupole Moments (Debye-Ang)
        XX    -113.8930     XY      15.6700     YY     -82.7094
        XZ       9.5182     YZ      -2.8194     ZZ     -90.3471

 Total job time:  47.97s(wall), 47.83s(cpu)
        *  Thank you very much for using Q-Chem.  Have a nice day.  *
