 Q-Chem 5.4, Q-Chem, Inc., Pleasanton, CA (2021)
 Q-Chem 5.4.2 for Intel X86 EM64T Linux

User input:
--------------------------------------------------------------
$molecule
0 1
C           -3.30813877320000       -1.18311780740000        1.50115349850000
C           -2.58541718340000       -1.25529322690000        0.39518454810000
C           -1.52846889210000       -0.27249878600000        0.07421860240000
C           -1.97093362880000        1.03706905500000       -0.10228112780000
C           -1.09172375860000        2.05732472660000       -0.40601225410000
Cl          -1.68535446660000        3.66243366280000       -0.65297808680000
C            0.26158760580000        1.79891800400000       -0.50859358820000
C            0.73490948150000        0.51133353530000       -0.29673676140000
C            2.17792245060000        0.29011010290000       -0.39045686500000
C            2.91659793960000       -0.46563183840000        0.40438585850000
F            2.53894854980000       -1.13700981150000        1.47851292260000
F            4.23315702300000       -0.60944970650000        0.24686662870000
C           -0.15696898450000       -0.55130763940000       -0.03138413910000
O            0.45505906920000       -1.74879976920000        0.13622700650000
C           -0.22688199250000       -2.98043081040000        0.02237961970000
C           -0.56241363740000       -3.31587525880000       -1.42745913770000
H           -4.10954028260000       -1.87335212360000        1.70208169250000
H           -3.10825901370000       -0.44177544550000        2.25671270060000
H           -2.81341468420000       -2.00172403910000       -0.35511233130000
H           -3.02607836750000        1.24287455210000       -0.01140713470000
H            0.95436828610000        2.59416596310000       -0.73312556550000
H            2.70620195090000        0.82357009060000       -1.16682334720000
H           -1.12236318620000       -2.99015956050000        0.65198764630000
H            0.48462980090000       -3.71022748850000        0.41882231190000
H           -1.19063084360000       -2.54474047300000       -1.86826397370000
H           -1.08277754210000       -4.26843451930000       -1.47476676010000
H            0.35124221150000       -3.38357962310000       -2.01294833100000
$end

$rem
BASIS = 6-31G*
GUI = 2
METHOD = B3LYP
PRINT_ORBITALS false
MOLDEN_FORMAT false
$end
--------------------------------------------------------------

             Standard Nuclear Orientation (Angstroms)
    I     Atom           X                Y                Z
 ----------------------------------------------------------------
    1      C      -1.5299958727     3.0965126647    -1.4517416788
    2      C      -1.0414848758     2.5910913818    -0.3307557559
    3      C      -0.9451271900     1.1347373083    -0.0945529815
    4      C      -2.1626446652     0.4574932760    -0.0647730151
    5      C      -2.2211706901    -0.9055612066     0.1469848898
    6      Cl     -3.7539508800    -1.7030542825     0.2129691332
    7      C      -1.0573906601    -1.6338416547     0.3018146162
    8      C       0.1712121873    -0.9912819227     0.2351609492
    9      C       1.3771374099    -1.8067988994     0.3789876229
   10      C       2.4954405225    -1.6967772463    -0.3180458764
   11      F       2.7563632842    -0.8786076078    -1.3228514044
   12      F       3.5507940682    -2.4881969828    -0.1213039099
   13      C       0.2454759542     0.4090236499     0.0657659235
   14      O       1.5125458769     0.8889452364     0.0362986979
   15      C       1.8227966305     2.2476430950     0.2656553190
   16      C       1.6765485210     2.6267936395     1.7360271224
   17      H      -1.6433893432     4.1575639136    -1.5944024575
   18      H      -1.8141501352     2.4650512926    -2.2769222738
   19      H      -0.7742523559     3.2455843619     0.4891911597
   20      H      -3.0719910974     1.0228327188    -0.1967759906
   21      H      -1.0964559386    -2.7005315350     0.4548688533
   22      H       1.3449140036    -2.6056700518     1.1050525219
   23      H       1.2211228654     2.8989235079    -0.3763804964
   24      H       2.8699626425     2.3310827594    -0.0384831323
   25      H       0.6595115849     2.4539312206     2.0815254209
   26      H       1.9251627047     3.6755094997     1.8730372728
   27      H       2.3471632126     2.0231200256     2.3426592925
 ----------------------------------------------------------------

    9   -1198.9305105422      5.30e-06  Convergence criterion met
 Total energy in the final basis set =    -1198.9305105422

                    Orbital Energies (a.u.)
 --------------------------------------------------------------

 Alpha MOs
 -- Occupied --
******** -24.7319 -24.7279 -19.1803 -10.3514 -10.2590 -10.2454 -10.2417
-10.2092 -10.2080 -10.2030 -10.1994 -10.1984 -10.1976 -10.1893 -10.1876
 -9.4616  -7.2255  -7.2160  -7.2156  -1.2774  -1.2161  -1.0748  -0.8964
 -0.8497  -0.8216  -0.7805  -0.7765  -0.7367  -0.7215  -0.6583  -0.6468
 -0.6197  -0.5959  -0.5744  -0.5625  -0.5353  -0.5252  -0.5112  -0.4985
 -0.4769  -0.4714  -0.4668  -0.4539  -0.4401  -0.4342  -0.4306  -0.4274
 -0.4076  -0.4050  -0.4024  -0.3937  -0.3877  -0.3744  -0.3579  -0.3551
 -0.3303  -0.3106  -0.3052  -0.2883  -0.2709  -0.2361  -0.2133

          Ground-State Mulliken Net Atomic Charges

     Atom                 Charge (a.u.)
  ----------------------------------------
      1 C                    -0.314822
      2 C                    -0.166691
      3 C                     0.097942
      4 C                    -0.184904
      5 C                    -0.067351
      6 Cl                   -0.022709
      7 C                    -0.190861
      8 C                     0.109859
      9 C                    -0.316739
     10 C                     0.576514
     11 F                    -0.227584
     12 F                    -0.252664
     13 C                     0.279844
     14 O                    -0.523522
     15 C                    -0.050056
     16 C                    -0.467752
     17 H                     0.146055
     18 H                     0.155267
     19 H                     0.153809
     20 H                     0.153490
     21 H                     0.150775
     22 H                     0.166360
     23 H                     0.159724
     24 H                     0.156746
     25 H                     0.161175
     26 H                     0.152124
     27 H                     0.165971
  ----------------------------------------
  Sum of atomic charges =     0.000000

                    Cartesian Multipole Moments
 -----------------------------------------------------------------
    Charge (ESU x 10^10)
                 0.0000
    Dipole Moment (Debye)
         X       0.8889      Y       2.5760      Z       0.7599
       Tot       2.8290
    Quadrupole Moments (Debye-Ang)
        XX    -105.1967     XY       0.2508     YY     -88.2576
        XZ       3.4877     YZ      -0.9738     ZZ     -97.4916

 Total job time:  72.46s(wall), 69.18s(cpu)
        *  Thank you very much for using Q-Chem.  Have a nice day.  *
