 Q-Chem 5.2, Q-Chem, Inc., Pleasanton, CA (2019)
 Q-Chem 5.2.1 for Intel X86 EM64T Linux

User input:
--------------------------------------------------------------
$molecule
0 1
C        -3.42104663420000   -2.82883176780000    0.03420741490000
C        -3.33735777550000   -1.50571808490000   -0.05592507900000
C        -2.08033058290000   -0.80518862260000   -0.00939980250000
N        -0.89306572570000   -1.31912822270000    0.12121623330000
C        -0.02911244380000   -0.26637401100000    0.11489631890000
C         1.41963690880000   -0.48710954590000    0.23730005590000
O         1.94956880740000   -1.56601079040000    0.26079694550000
O         2.08989913840000    0.67719746060000    0.33086070100000
C         3.51213245120000    0.58507052420000    0.43219677680000
C         4.15952421730000    0.43759214580000   -0.93729849510000
C        -0.76316231780000    0.90497698380000   -0.02907766370000
C        -0.37851770650000    2.28684052120000   -0.10876214340000
C        -1.25030267240000    3.28244332850000   -0.25327208560000
O        -2.06332207580000    0.54546533770000   -0.10728787540000
H        -4.36739242970000   -3.33883836620000   -0.00195242530000
H        -2.53099728550000   -3.42278086490000    0.14652027040000
H        -4.20772002760000   -0.87503844440000   -0.16955941820000
H         3.76676574460000   -0.27152031280000    1.06461966980000
H         3.82139169180000    1.51298182510000    0.91821817710000
H         3.84592728820000   -0.49706725270000   -1.39539532860000
H         5.24041065020000    0.43215886270000   -0.83019630470000
H         3.86954688780000    1.26318316380000   -1.58316063050000
H         0.68337705260000    2.46277452450000   -0.04073422670000
H        -2.30958393870000    3.09824321480000   -0.31747124160000
H        -0.92805856000000    4.30693923630000   -0.31050578010000
$end

$rem
BASIS = 6-31G*
GUI = 2
METHOD = B3LYP
PRINT_ORBITALS false
MOLDEN_FORMAT false
--------------------------------------------------------------

             Standard Nuclear Orientation (Angstroms)
    I     Atom           X                Y                Z
 ----------------------------------------------------------------
    1      C       4.0762121070    -1.8542472645     0.1194831255
    2      C       3.6509258015    -0.5953958055     0.1329765253
    3      C       2.2561080747    -0.2491539069     0.0456635912
    4      N       1.2448635523    -1.0603038287    -0.0553939318
    5      C       0.1374845202    -0.2694459558    -0.1101858010
    6      C      -1.2024239277    -0.8653928390    -0.2200684725
    7      O      -1.4340407188    -2.0444862849    -0.1813370353
    8      O      -2.1501582121     0.0777555647    -0.3809618249
    9      C      -3.4981321556    -0.3861425264    -0.4772363155
   10      C      -4.1060185265    -0.6201665785     0.8982963718
   11      C       0.5403962181     1.0585099575    -0.0339222170
   12      C      -0.1905895204     2.2952425883    -0.0343459128
   13      C       0.3908936656     3.4895733328     0.0526510823
   14      O       1.8879532160     1.0540010279     0.0653282944
   15      H       5.1217678590    -2.0980919720     0.1853432583
   16      H       3.3724476884    -2.6643078328     0.0414121998
   17      H       4.3261342428     0.2450351759     0.2102380821
   18      H      -3.5122274840    -1.3133378072    -1.0591769694
   19      H      -4.0299502324     0.4010070448    -1.0161635348
   20      H      -3.5678344766    -1.4142511842     1.4097369856
   21      H      -5.1467545418    -0.9121405921     0.7913589959
   22      H      -4.0499596288     0.2870726553     1.4954560248
   23      H      -1.2606133131     2.1852291250    -0.1127498110
   24      H       1.4605957203     3.5907254897     0.1277095257
   25      H      -0.1868225232     4.3967382263     0.0504854273
 ----------------------------------------------------------------

    9    -668.0758037616      7.16e-06  Convergence criterion met
 Total energy in the final basis set =     -668.0758037616

                    Orbital Energies (a.u.)
 --------------------------------------------------------------

 Alpha MOs
 -- Occupied --
-19.2386 -19.1917 -19.1318 -14.3319 -10.3161 -10.2830 -10.2663 -10.2432
-10.2291 -10.2087 -10.2058 -10.1971 -10.1960 -10.1802  -1.1535  -1.1076
 -1.0174  -0.9349  -0.8365  -0.7963  -0.7785  -0.7389  -0.6892  -0.6492
 -0.6376  -0.5884  -0.5818  -0.5604  -0.5293  -0.4968  -0.4946  -0.4817
 -0.4715  -0.4615  -0.4501  -0.4393  -0.4389  -0.4134  -0.4027  -0.3873
 -0.3864  -0.3776  -0.3716  -0.3462  -0.3411  -0.3190  -0.2996  -0.2906
 -0.2899  -0.2742  -0.2185

          Ground-State Mulliken Net Atomic Charges

     Atom                 Charge (a.u.)
  ----------------------------------------
      1 C                    -0.325516
      2 C                    -0.118291
      3 C                     0.510118
      4 N                    -0.494522
      5 C                     0.139197
      6 C                     0.593759
      7 O                    -0.468639
      8 O                    -0.478876
      9 C                    -0.045541
     10 C                    -0.464530
     11 C                     0.296997
     12 C                    -0.110246
     13 C                    -0.341877
     14 O                    -0.483410
     15 H                     0.155173
     16 H                     0.186854
     17 H                     0.150203
     18 H                     0.172260
     19 H                     0.149793
     20 H                     0.181521
     21 H                     0.152410
     22 H                     0.154439
     23 H                     0.173715
     24 H                     0.161846
     25 H                     0.153161
  ----------------------------------------
  Sum of atomic charges =     0.000000

                    Cartesian Multipole Moments
 -----------------------------------------------------------------
    Charge (ESU x 10^10)
                 0.0000
    Dipole Moment (Debye)
         X       0.0343      Y       2.9625      Z       0.1262
       Tot       2.9654
    Quadrupole Moments (Debye-Ang)
        XX     -61.7972     XY      -3.3082     YY     -82.4554
        XZ       1.1735     YZ      -0.1791     ZZ     -81.7178

 Total job time:  106.61s(wall), 34.16s(cpu)
        *  Thank you very much for using Q-Chem.  Have a nice day.  *
