 Q-Chem 5.2, Q-Chem, Inc., Pleasanton, CA (2019)
 Q-Chem 5.2.1 for Intel X86 EM64T Linux

User input:
--------------------------------------------------------------
$molecule
0 1
C        -4.62144062200000    2.26691442880000    0.08271837100000
C        -3.43768783770000    2.26798696000000    0.68202703500000
C        -2.40080209630000    1.31690349830000    0.36060825330000
N        -2.52752370220000    0.33684006240000   -0.58072289180000
C        -1.38594816680000   -0.29671711830000   -0.55893179100000
C        -1.10780464620000   -1.48902024460000   -1.33130674810000
C        -0.46377794960000   -2.55084530170000   -0.86920296960000
N        -0.55918545980000    0.29161552660000    0.37643912520000
C         0.80484735400000    0.09097903490000    0.68996171510000
O         1.25929282190000    0.37080751280000    1.75842992170000
O         1.42745369780000   -0.40273274050000   -0.36519852130000
C         2.85043997680000   -0.71214413610000   -0.31376133700000
C         3.12697823690000   -1.75349001080000    0.76827840560000
C         3.14498238600000   -1.28117585270000   -1.70052576360000
C         3.64805217130000    0.56635372270000   -0.06736446290000
N        -1.22729308890000    1.30913618420000    0.95222440760000
H        -5.38592406930000    2.98142074870000    0.33415581120000
H        -4.84921931640000    1.54081405440000   -0.67893633070000
H        -3.17328372870000    2.97845421000000    1.45128071680000
H        -1.55529990690000   -1.48766181390000   -2.31502082460000
H        -0.06440121590000   -2.58990439900000    0.13073985670000
H        -0.32752035630000   -3.42925986080000   -1.47592609140000
H         2.53320197730000   -2.64785794890000    0.59209268920000
H         2.88822299260000   -1.35622585920000    1.75109787850000
H         4.17872516740000   -2.02412622320000    0.74733043760000
H         2.53311436300000   -2.16137226940000   -1.87908045400000
H         4.19319875960000   -1.55399095060000   -1.77415603780000
H         2.91502713100000   -0.54237298330000   -2.46322529420000
H         3.42791338540000    0.96839361410000    0.91785516400000
H         3.39655213280000    1.31405955210000   -0.81640286090000
H         4.71066813660000    0.35003576170000   -0.12972474040000
$end

$rem
BASIS = 6-31G*
GUI = 2
METHOD = B3LYP
PRINT_ORBITALS false
MOLDEN_FORMAT false
--------------------------------------------------------------

             Standard Nuclear Orientation (Angstroms)
    I     Atom           X                Y                Z
 ----------------------------------------------------------------
    1      C       5.1977235635     0.2270503362     0.4375895601
    2      C       4.1350478352     0.9674665359     0.1495846517
    3      C       2.8059630444     0.4149102691     0.0436742373
    4      N       2.5094110328    -0.9041915959     0.2299917158
    5      C       1.2196371959    -0.9860979664     0.0433394928
    6      C       0.4803189546    -2.2306509311     0.0401624397
    7      C      -0.4742751622    -2.5357636277    -0.8266934044
    8      N       0.7228871969     0.2690814817    -0.2436354486
    9      C      -0.5985099394     0.7519230425    -0.3847402633
   10      O      -0.8524636128     1.7340049580    -1.0151937604
   11      O      -1.4227798097    -0.0271202927     0.2923297210
   12      C      -2.8549073161     0.2410560233     0.3113931567
   13      C      -3.4213438446     0.1932497932    -1.1058396641
   14      C      -3.4222699351    -0.8956726475     1.1596946878
   15      C      -3.1177969705     1.5950322224     0.9664434520
   16      N       1.7491255725     1.1409061327    -0.2448009953
   17      H       6.1833655505     0.6527536540     0.5114919777
   18      H       5.0984827389    -0.8318216130     0.6054115668
   19      H       4.1950435484     2.0312283260    -0.0271519924
   20      H       0.8350403375    -2.9523993896     0.7621036708
   21      H      -0.7968920020    -1.8482707792    -1.5910133651
   22      H      -0.9574817750    -3.4972840813    -0.8099302732
   23      H      -3.2043810918    -0.7679176300    -1.5669145064
   24      H      -2.9935209682     0.9845476019    -1.7154070136
   25      H      -4.4987581687     0.3258552085    -1.0677797010
   26      H      -3.1834971324    -1.8536641972     0.7055474360
   27      H      -4.5005056830    -0.7966765904     1.2385268727
   28      H      -2.9886942643    -0.8699339566     2.1555708501
   29      H      -2.7054039031     2.3973904257     0.3607140206
   30      H      -2.6601008693     1.6282891492     1.9527411019
   31      H      -4.1882401075     1.7472361208     1.0704646896
 ----------------------------------------------------------------

    9    -742.8676577708      7.16e-06  Convergence criterion met
 Total energy in the final basis set =     -742.8676577708

                    Orbital Energies (a.u.)
 --------------------------------------------------------------

 Alpha MOs
 -- Occupied --
-19.2072 -19.1503 -14.4303 -14.3565 -14.3260 -10.3627 -10.2702 -10.2689
-10.2407 -10.2113 -10.2032 -10.1910 -10.1882 -10.1847 -10.1823 -10.1821
 -1.1411  -1.0829  -1.0445  -0.9151  -0.8666  -0.8258  -0.7887  -0.7738
 -0.7097  -0.7063  -0.6893  -0.6533  -0.6304  -0.6181  -0.5551  -0.5415
 -0.5256  -0.5087  -0.4952  -0.4842  -0.4751  -0.4650  -0.4613  -0.4434
 -0.4323  -0.4306  -0.4230  -0.4071  -0.3977  -0.3907  -0.3807  -0.3768
 -0.3642  -0.3627  -0.3524  -0.3350  -0.3256  -0.3162  -0.3122  -0.2964
 -0.2736  -0.2648  -0.2340

          Ground-State Mulliken Net Atomic Charges

     Atom                 Charge (a.u.)
  ----------------------------------------
      1 C                    -0.341585
      2 C                    -0.087632
      3 C                     0.428567
      4 N                    -0.532845
      5 C                     0.499991
      6 C                    -0.091206
      7 C                    -0.325112
      8 N                    -0.407339
      9 C                     0.796841
     10 O                    -0.443490
     11 O                    -0.480439
     12 C                     0.297239
     13 C                    -0.474732
     14 C                    -0.452324
     15 C                    -0.468730
     16 N                    -0.320658
     17 H                     0.146909
     18 H                     0.171806
     19 H                     0.149167
     20 H                     0.164430
     21 H                     0.156222
     22 H                     0.155748
     23 H                     0.148689
     24 H                     0.192070
     25 H                     0.152582
     26 H                     0.157224
     27 H                     0.152493
     28 H                     0.159584
     29 H                     0.191612
     30 H                     0.154843
     31 H                     0.150075
  ----------------------------------------
  Sum of atomic charges =     0.000000

                    Cartesian Multipole Moments
 -----------------------------------------------------------------
    Charge (ESU x 10^10)
                 0.0000
    Dipole Moment (Debye)
         X      -3.1747      Y      -2.2305      Z       0.9973
       Tot       4.0061
    Quadrupole Moments (Debye-Ang)
        XX     -82.1481     XY       3.5725     YY     -95.1161
        XZ       0.0349     YZ       3.3009     ZZ     -94.7130

 Total job time:  55.52s(wall), 55.36s(cpu)
        *  Thank you very much for using Q-Chem.  Have a nice day.  *
