 Q-Chem 5.2, Q-Chem, Inc., Pleasanton, CA (2019)
 Q-Chem 5.2.1 for Intel X86 EM64T Linux

User input:
--------------------------------------------------------------
$molecule
0 1
C         2.91367189680000    1.16942554000000   -0.00217980680000
C         1.58654139410000    1.20683033030000    0.00324027760000
C         0.72047603750000    0.04793237360000    0.00094022220000
C         1.07957981850000   -1.27400112430000    0.00123603870000
O         0.00003453320000   -2.07001227290000    0.00001831490000
C        -1.07953527490000   -1.27403768730000   -0.00127838940000
C        -0.72048034460000    0.04790887060000   -0.00078221260000
C        -1.58658141080000    1.20678116660000   -0.00299396910000
C        -2.91371143840000    1.16938314730000    0.00180456020000
H         3.50074615470000    2.07140324020000    0.00046372770000
H         3.46035358870000    0.24243781070000   -0.00937958710000
H         1.08392028790000    2.16461150750000    0.01009209580000
H         2.03741406140000   -1.75444067130000    0.00268813680000
H        -2.03735757590000   -1.75450105810000   -0.00276401800000
H        -1.08398753360000    2.16456218530000   -0.00932503090000
H        -3.46044830070000    0.24245824070000    0.00857811330000
H        -3.50072026930000    2.07141051130000   -0.00048592230000
$end

$rem
BASIS = 6-31G*
GUI = 2
METHOD = B3LYP
PRINT_ORBITALS false
MOLDEN_FORMAT false
--------------------------------------------------------------

             Standard Nuclear Orientation (Angstroms)
    I     Atom           X                Y                Z
 ----------------------------------------------------------------
    1      C       2.9136719017     1.1274090099    -0.0020041446
    2      C       1.5865410377     1.1648129672     0.0033325808
    3      C       0.7204765866     0.0059144264     0.0009863205
    4      C       1.0795812150    -1.3160188338     0.0013137767
    5      O       0.0000365299    -2.1120306990     0.0000339678
    6      C      -1.0795337167    -1.3160568306    -0.0013358470
    7      C      -0.7204796848     0.0058899662    -0.0008263416
    8      C      -1.5865813705     1.1647616787    -0.0031003549
    9      C      -2.9137116715     1.1273628221     0.0016153333
   10      H       3.5007454017     2.0293871135     0.0006699045
   11      H       3.4603546511     0.2004215894    -0.0091632746
   12      H       1.0839188756     2.1225938621     0.0101462944
   13      H       2.0374156800    -1.7964577424     0.0028291777
   14      H      -2.0373556079    -1.7965208400    -0.0028781239
   15      H      -1.0839877258     2.1225429833    -0.0094065784
   16      H      -3.4604483492     0.2004376037     0.0083610704
   17      H      -3.5007209492     2.0293897851    -0.0007181517
 ----------------------------------------------------------------

    9    -384.8158329485      2.66e-06  Convergence criterion met
 Total energy in the final basis set =     -384.8158329485

                    Orbital Energies (a.u.)
 --------------------------------------------------------------

 Alpha MOs
 -- Occupied --
-19.2240 -10.2335 -10.2335 -10.1938 -10.1938 -10.1906 -10.1902 -10.1791
-10.1791  -1.1262  -0.8348  -0.7907  -0.7431  -0.7362  -0.6233  -0.6233
 -0.5656  -0.5510  -0.5032  -0.4721  -0.4597  -0.4528  -0.4416  -0.4222
 -0.4090  -0.3672  -0.3539  -0.3515  -0.3346  -0.3010  -0.2252  -0.2106

          Ground-State Mulliken Net Atomic Charges

     Atom                 Charge (a.u.)
  ----------------------------------------
      1 C                    -0.350462
      2 C                    -0.096081
      3 C                     0.055312
      4 C                     0.011581
      5 O                    -0.378464
      6 C                     0.011582
      7 C                     0.055317
      8 C                    -0.096090
      9 C                    -0.350457
     10 H                     0.143256
     11 H                     0.137285
     12 H                     0.131891
     13 H                     0.156449
     14 H                     0.156449
     15 H                     0.131889
     16 H                     0.137289
     17 H                     0.143252
  ----------------------------------------
  Sum of atomic charges =     0.000000

                    Cartesian Multipole Moments
 -----------------------------------------------------------------
    Charge (ESU x 10^10)
                 0.0000
    Dipole Moment (Debye)
         X       0.0000      Y       0.3121      Z       0.0003
       Tot       0.3121
    Quadrupole Moments (Debye-Ang)
        XX     -46.0807     XY       0.0002     YY     -49.7380
        XZ      -0.0071     YZ       0.0016     ZZ     -56.4760

 Total job time:  14.42s(wall), 14.32s(cpu)
        *  Thank you very much for using Q-Chem.  Have a nice day.  *
