 Q-Chem 5.2, Q-Chem, Inc., Pleasanton, CA (2019)
 Q-Chem 5.2.1 for Intel X86 EM64T Linux

User input:
--------------------------------------------------------------
$molecule
0 1
C         0.01547948070000    2.53155298810000    0.14506180260000
C         0.67933797980000    1.68426520690000   -0.62667867280000
C         1.09642410580000    0.33726403150000   -0.22839967430000
N         2.32734295300000    0.01090769810000   -0.60808520220000
C         2.85789748870000   -1.12759878300000   -0.21227596810000
C         2.19833321390000   -2.01948287890000    0.62111426100000
C         0.89704450730000   -1.72135728550000    0.98181770280000
C         0.30325760220000   -0.54312857490000    0.53228654370000
C        -1.10825262590000   -0.31590585610000    0.84477247450000
C        -2.02247123640000    0.09203023990000   -0.01791582330000
F        -1.82927301710000    0.40066604530000   -1.29290177050000
F        -3.30971034730000    0.24604859130000    0.28341846390000
H        -0.21563071960000    3.52926559350000   -0.18576372920000
H        -0.31232305420000    2.27001503710000    1.13826435650000
H         1.04631971650000    1.99154142480000   -1.59552429070000
H         3.85932223040000   -1.32514334090000   -0.57119038310000
H         2.67725808220000   -2.92480848700000    0.95872666810000
H         0.32542933950000   -2.40670888570000    1.59179207320000
H        -1.45183778330000   -0.57764511360000    1.83465005270000
$end

$rem
BASIS = 6-31G*
GUI = 2
METHOD = B3LYP
PRINT_ORBITALS false
MOLDEN_FORMAT false
--------------------------------------------------------------

             Standard Nuclear Orientation (Angstroms)
    I     Atom           X                Y                Z
 ----------------------------------------------------------------
    1      C       0.9307936516     2.1400370566    -0.9909562207
    2      C       0.0461150934     1.9072675496    -0.0331721857
    3      C      -0.8355802759     0.7385724049     0.0281800610
    4      N      -2.0844802201     1.0136850285     0.3892794080
    5      C      -2.9987757369     0.0660254800     0.3704336941
    6      C      -2.7329469383    -1.2326146381    -0.0393106658
    7      C      -1.4273477371    -1.5496905476    -0.3667426950
    8      C      -0.4375702139    -0.5701256916    -0.3061028268
    9      C       0.9482658299    -0.9695246880    -0.5542512624
   10      C       1.9848475020    -0.6221357880     0.1882162552
   11      F       1.9693578254     0.1667683326     1.2538433647
   12      F       3.2292240393    -1.0384182986    -0.0348183575
   13      H       1.5126850176     3.0452099466    -1.0097279422
   14      H       1.1012016666     1.4461671150    -1.7983059141
   15      H      -0.1459063889     2.6456681479     0.7321045010
   16      H      -3.9886913986     0.3667146858     0.6872110721
   17      H      -3.5143224308    -1.9747152693    -0.0805976681
   18      H      -1.1611554002    -2.5590442818    -0.6475738321
   19      H       1.1335066446    -1.6678126770    -1.3570560607
 ----------------------------------------------------------------

    9    -601.5417644318      4.64e-06  Convergence criterion met
 Total energy in the final basis set =     -601.5417644318

                    Orbital Energies (a.u.)
 --------------------------------------------------------------

 Alpha MOs
 -- Occupied --
-24.7400 -24.7364 -14.3252 -10.3580 -10.2299 -10.2204 -10.2142 -10.2086
-10.2045 -10.1985 -10.1879 -10.1819  -1.2843  -1.2243  -0.9523  -0.8364
 -0.8061  -0.7747  -0.7376  -0.6599  -0.6365  -0.6198  -0.5767  -0.5733
 -0.5343  -0.5201  -0.5086  -0.4859  -0.4722  -0.4421  -0.4413  -0.4404
 -0.4280  -0.4149  -0.4104  -0.4004  -0.3824  -0.3560  -0.3069  -0.2958
 -0.2651  -0.2526  -0.2241

          Ground-State Mulliken Net Atomic Charges

     Atom                 Charge (a.u.)
  ----------------------------------------
      1 C                    -0.335205
      2 C                    -0.092428
      3 C                     0.222518
      4 N                    -0.468132
      5 C                     0.043222
      6 C                    -0.145651
      7 C                    -0.140295
      8 C                     0.129137
      9 C                    -0.358090
     10 C                     0.586070
     11 F                    -0.230103
     12 F                    -0.245858
     13 H                     0.148178
     14 H                     0.149461
     15 H                     0.149724
     16 H                     0.140927
     17 H                     0.137786
     18 H                     0.141271
     19 H                     0.167468
  ----------------------------------------
  Sum of atomic charges =     0.000000

                    Cartesian Multipole Moments
 -----------------------------------------------------------------
    Charge (ESU x 10^10)
                -0.0000
    Dipole Moment (Debye)
         X      -0.2793      Y      -1.8574      Z      -1.0152
       Tot       2.1351
    Quadrupole Moments (Debye-Ang)
        XX     -65.9649     XY       6.0303     YY     -63.5662
        XZ      -1.5945     YZ       1.2250     ZZ     -66.8748

 Total job time:  24.55s(wall), 24.47s(cpu)
        *  Thank you very much for using Q-Chem.  Have a nice day.  *
