 Q-Chem 5.2, Q-Chem, Inc., Pleasanton, CA (2019)
 Q-Chem 5.2.1 for Intel X86 EM64T Linux

User input:
--------------------------------------------------------------
$molecule
0 1
C         3.89053952420000    0.17965928490000    0.66400074540000
C         3.07386084380000   -0.43503558610000   -0.18050291710000
C         1.60476206160000   -0.35537622640000   -0.16811190730000
C         0.90746131640000   -1.55162090130000   -0.17883407830000
C        -0.47742339850000   -1.51996866140000   -0.10383404810000
N        -1.39494142100000   -2.54327322120000   -0.10691984580000
C        -2.55102586440000   -1.96705180150000   -0.05423276150000
N        -2.48144929950000   -0.60280576450000   -0.00228474750000
C        -1.14990594170000   -0.27999740000000   -0.03338061560000
C        -0.47885308050000    0.94226239350000   -0.06738826840000
C        -1.19186099100000    2.21688614350000   -0.07749592140000
C        -2.29541998430000    2.48470407570000    0.61054856860000
C         0.92270208300000    0.88755746740000   -0.13879179930000
N         1.63599466360000    2.06340155940000   -0.26606300740000
H         4.95809001000000    0.04453365570000    0.61732898180000
H         3.52958858140000    0.81384457120000    1.45877109180000
H         3.48702754520000   -1.11304307040000   -0.91783906320000
H         1.43160747660000   -2.49315241020000   -0.21898704490000
H        -3.48791587480000   -2.49019405780000   -0.04349663910000
H        -3.24929818370000    0.04645305970000   -0.01505770260000
H        -0.76767773180000    2.98274767730000   -0.71637389730000
H        -2.72989714430000    1.77787364270000    1.29859361670000
H        -2.78692884150000    3.44036011040000    0.54064269900000
H         1.24366150930000    2.88554243790000    0.15850997230000
H         2.63577025900000    1.97673816430000   -0.18814123480000
$end

$rem
BASIS = 6-31G*
GUI = 2
METHOD = B3LYP
PRINT_ORBITALS false
MOLDEN_FORMAT false
--------------------------------------------------------------

             Standard Nuclear Orientation (Angstroms)
    I     Atom           X                Y                Z
 ----------------------------------------------------------------
    1      C      -3.8496094960     0.4112966761     0.6540859712
    2      C      -2.9433805153     0.9440998705    -0.1539177898
    3      C      -1.5035617339     0.6413506758    -0.1500210668
    4      C      -0.6325299537     1.7161060659    -0.0904466953
    5      C       0.7309306617     1.4697761797    -0.0209536750
    6      N       1.7932877885     2.3399693573     0.0352800749
    7      C       2.8480107904     1.5925253870     0.0502865460
    8      N       2.5715958085     0.2540953512     0.0201777270
    9      C       1.2067011599     0.1399899261    -0.0269652186
   10      C       0.3579579552    -0.9617437920    -0.1328200846
   11      C       0.8690555572    -2.3270550974    -0.2214340211
   12      C       1.9144777876    -2.8003040112     0.4464746124
   13      C      -1.0185002916    -0.6903513794    -0.1972935087
   14      N      -1.9013150624    -1.7342846009    -0.3933422380
   15      H      -4.8838944270     0.7097521505     0.6183055274
   16      H      -3.5945393739    -0.3168491794     1.4083268545
   17      H      -3.2437840904     1.7199800209    -0.8480598131
   18      H      -1.0072412260     2.7270924435    -0.0725289138
   19      H       3.8534211962     1.9655084312     0.0901555934
   20      H       3.2319398700    -0.5024412315    -0.0335828320
   21      H       0.3377057180    -2.9798482883    -0.9041995685
   22      H       2.4467030234    -2.2102580105     1.1747380723
   23      H       2.2555212752    -3.8136705180     0.3179292644
   24      H      -1.6413123806    -2.6304613461    -0.0200206743
   25      H      -2.8768108560    -1.5014082313    -0.3078428752
 ----------------------------------------------------------------

    9    -590.0075230571      2.68e-06  Convergence criterion met
 Total energy in the final basis set =     -590.0075230571

                    Orbital Energies (a.u.)
 --------------------------------------------------------------

 Alpha MOs
 -- Occupied --
-14.3829 -14.3346 -14.3035 -10.2387 -10.2262 -10.2158 -10.1976 -10.1927
-10.1905 -10.1867 -10.1854 -10.1833 -10.1800 -10.1800  -1.0151  -0.9228
 -0.8759  -0.8337  -0.8034  -0.7697  -0.7218  -0.7149  -0.6409  -0.6144
 -0.6134  -0.5903  -0.5559  -0.5412  -0.5175  -0.5026  -0.4756  -0.4633
 -0.4493  -0.4410  -0.4371  -0.4326  -0.4096  -0.3940  -0.3881  -0.3708
 -0.3540  -0.3403  -0.3131  -0.2928  -0.2820  -0.2661  -0.2584  -0.2095
 -0.1833

          Ground-State Mulliken Net Atomic Charges

     Atom                 Charge (a.u.)
  ----------------------------------------
      1 C                    -0.349551
      2 C                    -0.148336
      3 C                     0.121862
      4 C                    -0.253190
      5 C                     0.247467
      6 N                    -0.496949
      7 C                     0.218060
      8 N                    -0.690001
      9 C                     0.242255
     10 C                     0.127771
     11 C                    -0.140768
     12 C                    -0.365112
     13 C                     0.175725
     14 N                    -0.820364
     15 H                     0.144173
     16 H                     0.145442
     17 H                     0.143473
     18 H                     0.137219
     19 H                     0.152959
     20 H                     0.329201
     21 H                     0.142684
     22 H                     0.139448
     23 H                     0.144036
     24 H                     0.323857
     25 H                     0.328639
  ----------------------------------------
  Sum of atomic charges =     0.000000

                    Cartesian Multipole Moments
 -----------------------------------------------------------------
    Charge (ESU x 10^10)
                 0.0000
    Dipole Moment (Debye)
         X       0.3161      Y      -3.3860      Z       0.4293
       Tot       3.4277
    Quadrupole Moments (Debye-Ang)
        XX     -63.0607     XY      -3.5106     YY     -82.0753
        XZ      -0.3200     YZ      -2.1348     ZZ     -84.5079

 Total job time:  40.42s(wall), 40.29s(cpu)
        *  Thank you very much for using Q-Chem.  Have a nice day.  *
