 Q-Chem 5.2, Q-Chem, Inc., Pleasanton, CA (2019)
 Q-Chem 5.2.1 for Intel X86 EM64T Linux

User input:
--------------------------------------------------------------
$molecule
0 1
C        -3.03656921770000   -1.70799782760000   -0.73009945290000
C        -3.07840778880000   -0.49445537320000   -0.19469953270000
C        -1.94379038640000    0.38697009650000    0.06659040280000
C        -2.17288347750000    1.75798204290000    0.20208446870000
C        -1.14153190420000    2.64156543750000    0.45465148220000
C         0.15467876850000    2.17918441180000    0.57607457490000
C         0.43517837620000    0.82077755640000    0.43946066120000
C         1.81564553130000    0.35703647570000    0.57034527030000
C         2.38769100650000   -0.59396170740000   -0.15024392310000
F         1.85467315010000   -1.27745005960000   -1.14826478140000
F         3.65572081990000   -0.96448773250000    0.00812174010000
C        -0.62611476340000   -0.05200552320000    0.20479374260000
F        -0.35888566490000   -1.37248368770000    0.18451610900000
H        -3.94106634580000   -2.26835846730000   -0.89599086770000
H        -2.12140283760000   -2.18632898480000   -1.02965160500000
H        -4.03759770240000   -0.05809926950000    0.05662536350000
H        -3.18373327120000    2.12548331400000    0.10615518810000
H        -1.34871361370000    3.69532069740000    0.56100093890000
H         0.96483523850000    2.86519615450000    0.76990315310000
H         2.43848716900000    0.85588856650000    1.29718438790000
$end

$rem
BASIS = 6-31G*
GUI = 2
METHOD = B3LYP
PRINT_ORBITALS false
MOLDEN_FORMAT false
--------------------------------------------------------------

             Standard Nuclear Orientation (Angstroms)
    I     Atom           X                Y                Z
 ----------------------------------------------------------------
    1      C       2.5650189957    -2.3948063291     0.1089688247
    2      C       2.8375737962    -1.1087973028    -0.0726447600
    3      C       1.8892661587     0.0010920650    -0.0352528519
    4      C       2.3701660834     1.2904493196     0.2030939033
    5      C       1.5236211460     2.3812173792     0.2453134299
    6      C       0.1657287628     2.2139518849     0.0533435930
    7      C      -0.3633596970     0.9454974384    -0.1783918062
    8      C      -1.8041794840     0.7948632810    -0.3764418729
    9      C      -2.5512838848    -0.1988309182     0.0766466487
   10      F      -2.1663291797    -1.2177929480     0.8255366629
   11      F      -3.8640109161    -0.2742898752    -0.1266327484
   12      C       0.5148244336    -0.1355355942    -0.2360304215
   13      F       0.0072149175    -1.3382647358    -0.5695875343
   14      H       3.3478850729    -3.1335740548     0.0776317018
   15      H       1.5734850687    -2.7633144409     0.3016445477
   16      H       3.8639998927    -0.8012809626    -0.2323298005
   17      H       3.4303849729     1.4270683574     0.3558946283
   18      H       1.9238261120     3.3671862085     0.4251357546
   19      H      -0.5008078033     3.0618998970     0.0886750165
   20      H      -2.3149045751     1.5805356824    -0.9121273926
 ----------------------------------------------------------------

    9    -684.7445268759      5.28e-06  Convergence criterion met
 Total energy in the final basis set =     -684.7445268759

                    Orbital Energies (a.u.)
 --------------------------------------------------------------

 Alpha MOs
 -- Occupied --
-24.7387 -24.7340 -24.7110 -10.3576 -10.2744 -10.2128 -10.2059 -10.2040
-10.1985 -10.1968 -10.1943 -10.1933 -10.1805  -1.2841  -1.2258  -1.2211
 -0.8777  -0.8203  -0.7881  -0.7434  -0.7348  -0.6497  -0.6346  -0.6109
 -0.5824  -0.5684  -0.5491  -0.5216  -0.5174  -0.4892  -0.4836  -0.4645
 -0.4565  -0.4410  -0.4363  -0.4360  -0.4324  -0.4118  -0.3986  -0.3836
 -0.3705  -0.3674  -0.3400  -0.3118  -0.2820  -0.2324  -0.2275

          Ground-State Mulliken Net Atomic Charges

     Atom                 Charge (a.u.)
  ----------------------------------------
      1 C                    -0.342000
      2 C                    -0.119057
      3 C                     0.113876
      4 C                    -0.198836
      5 C                    -0.124573
      6 C                    -0.182921
      7 C                     0.104590
      8 C                    -0.319381
      9 C                     0.571219
     10 F                    -0.229570
     11 F                    -0.246797
     12 C                     0.249299
     13 F                    -0.284857
     14 H                     0.141972
     15 H                     0.161073
     16 H                     0.132238
     17 H                     0.135385
     18 H                     0.133515
     19 H                     0.135780
     20 H                     0.169047
  ----------------------------------------
  Sum of atomic charges =     0.000000

                    Cartesian Multipole Moments
 -----------------------------------------------------------------
    Charge (ESU x 10^10)
                 0.0000
    Dipole Moment (Debye)
         X       1.0977      Y       1.6903      Z      -0.0099
       Tot       2.0155
    Quadrupole Moments (Debye-Ang)
        XX     -67.7192     XY      -1.8057     YY     -65.8642
        XZ       1.0715     YZ      -0.3787     ZZ     -74.1309

 Total job time:  32.10s(wall), 30.37s(cpu)
        *  Thank you very much for using Q-Chem.  Have a nice day.  *
