 Q-Chem 5.2, Q-Chem, Inc., Pleasanton, CA (2019)
 Q-Chem 5.2.1 for Intel X86 EM64T Linux

User input:
--------------------------------------------------------------
$molecule
0 1
C        -2.69770731710000   -3.10502343420000    0.97811421210000
C        -2.47169518400000   -2.47568162440000   -0.39607917500000
N        -1.92255972260000   -1.15057498630000   -0.28940269380000
C        -2.65013244890000    0.01009758640000   -0.15404607500000
C        -1.76520450290000    1.10504182860000   -0.00949612090000
C        -2.26625227480000    2.39224023600000    0.13083749060000
C        -3.63485732400000    2.57265765070000    0.12803906830000
C        -4.49977064640000    1.48940766210000   -0.01084904310000
C        -4.02508949780000    0.19956271340000   -0.15198436160000
C        -0.59003445290000   -0.84225313130000   -0.20587059960000
C        -0.43831947130000    0.55729867470000   -0.04275577040000
C         0.82449087480000    1.11437535610000    0.05315703000000
C         1.94573217470000    0.28904566550000   -0.00987621220000
C         3.25266815400000    0.91415942070000    0.09422999840000
C         4.45225734360000    0.35285317490000    0.05908849890000
F         4.75873933450000   -0.93439333640000   -0.08055316170000
F         5.58542187990000    1.05169784940000    0.16649750210000
C         1.77438891730000   -1.09693713730000   -0.16774744630000
C         0.52495546650000   -1.66962818480000   -0.26477266650000
H        -3.11275319230000   -4.10347847770000    0.87014924620000
H        -3.38775262910000   -2.49896410590000    1.56056807760000
H        -1.75727689810000   -3.17252910970000    1.52010116180000
H        -3.41745763950000   -2.41539016390000   -0.94135584960000
H        -1.78229623160000   -3.09025243410000   -0.98130582690000
H        -1.59606009450000    3.23141294220000    0.24046262230000
H        -4.04609911620000    3.56510988970000    0.23644412160000
H        -5.56601155870000    1.66179597370000   -0.00604555490000
H        -4.71055446420000   -0.62834378560000   -0.25410284810000
H         0.93945173520000    2.18089936830000    0.17671974560000
H         3.26035377190000    1.98802040910000    0.21669160950000
H         2.63893114360000   -1.73789864130000   -0.21293169510000
H         0.42814665790000   -2.73840970900000   -0.38096982270000
$end

$rem
BASIS = 6-31G*
GUI = 2
METHOD = B3LYP
PRINT_ORBITALS false
MOLDEN_FORMAT false
--------------------------------------------------------------

             Standard Nuclear Orientation (Angstroms)
    I     Atom           X                Y                Z
 ----------------------------------------------------------------
    1      C      -2.6034030025     3.0605088181    -0.9509352058
    2      C      -2.3695195125     2.4265878832     0.4198320336
    3      N      -1.8105478126     1.1062133428     0.3058191371
    4      C      -2.5295608888    -0.0593391008     0.1667076539
    5      C      -1.6366454071    -1.1468248760     0.0151435300
    6      C      -2.1281881257    -2.4371474988    -0.1300302183
    7      C      -3.4953695459    -2.6280090496    -0.1250414220
    8      C      -4.3681946729    -1.5520383397     0.0207626579
    9      C      -3.9030361047    -0.2592740718     0.1668085978
   10      C      -0.4759036600     0.8084516030     0.2179186038
   11      C      -0.3138995772    -0.5891364059     0.0480022262
   12      C       0.9528987640    -1.1361178072    -0.0532744921
   13      C       2.0679598723    -0.3025593731     0.0110947728
   14      C       3.3793822848    -0.9172008706    -0.0987872077
   15      C       4.5747372036    -0.3469294035    -0.0637027096
   16      F       4.8717183557     0.9419605459     0.0812092592
   17      F       5.7129478286    -1.0366090476    -0.1768442184
   18      C       1.8864197131     1.0813346112     0.1757482845
   19      C       0.6328814117     1.6440266625     0.2781800149
   20      H      -3.0257984217     4.0552615023    -0.8374398607
   21      H      -3.2901178983     2.4518926306    -1.5346576874
   22      H      -1.6647331169     3.1376802682    -1.4946811538
   23      H      -3.3135688303     2.3565745455     0.9669127884
   24      H      -1.6835095612     3.0436975163     1.0063680318
   25      H      -1.4518713891    -3.2706705106    -0.2450133447
   26      H      -3.8992824529    -3.6230592731    -0.2371232234
   27      H      -5.4330997105    -1.7325299562     0.0175186059
   28      H      -4.5945561855     0.5629012605     0.2742668563
   29      H       1.0757020796    -2.2011536953    -0.1820188728
   30      H       3.3949720959    -1.9903967070    -0.2262273577
   31      H       2.7461540614     1.7286565123     0.2219839171
   32      H       0.5281958457     2.7114923365     0.3995292552
 ----------------------------------------------------------------

    9    -871.9647316590      5.95e-06  Convergence criterion met
 Total energy in the final basis set =     -871.9647316590

                    Orbital Energies (a.u.)
 --------------------------------------------------------------

 Alpha MOs
 -- Occupied --
-24.7354 -24.7241 -14.3772 -10.3451 -10.2366 -10.2200 -10.2195 -10.1952
-10.1947 -10.1881 -10.1872 -10.1868 -10.1865 -10.1848 -10.1843 -10.1840
-10.1839 -10.1828 -10.1773  -1.2748  -1.2142  -0.9973  -0.8610  -0.8512
 -0.8105  -0.7854  -0.7643  -0.7479  -0.7200  -0.7154  -0.6628  -0.6354
 -0.6274  -0.6035  -0.5829  -0.5795  -0.5624  -0.5367  -0.5240  -0.5091
 -0.5041  -0.4836  -0.4667  -0.4618  -0.4538  -0.4507  -0.4390  -0.4318
 -0.4306  -0.4262  -0.4180  -0.4105  -0.4038  -0.3945  -0.3883  -0.3740
 -0.3679  -0.3617  -0.3589  -0.3409  -0.3333  -0.3274  -0.2857  -0.2751
 -0.2380  -0.2112  -0.1900

          Ground-State Mulliken Net Atomic Charges

     Atom                 Charge (a.u.)
  ----------------------------------------
      1 C                    -0.444640
      2 C                    -0.167135
      3 N                    -0.618069
      4 C                     0.320992
      5 C                     0.062669
      6 C                    -0.192630
      7 C                    -0.148187
      8 C                    -0.136867
      9 C                    -0.183885
     10 C                     0.332691
     11 C                     0.066239
     12 C                    -0.275249
     13 C                     0.183655
     14 C                    -0.289833
     15 C                     0.528758
     16 F                    -0.239966
     17 F                    -0.254974
     18 C                    -0.210288
     19 C                    -0.182153
     20 H                     0.150433
     21 H                     0.164851
     22 H                     0.164812
     23 H                     0.161761
     24 H                     0.161844
     25 H                     0.128021
     26 H                     0.121672
     27 H                     0.124374
     28 H                     0.125335
     29 H                     0.127633
     30 H                     0.154758
     31 H                     0.135543
     32 H                     0.127834
  ----------------------------------------
  Sum of atomic charges =     0.000000

                    Cartesian Multipole Moments
 -----------------------------------------------------------------
    Charge (ESU x 10^10)
                 0.0000
    Dipole Moment (Debye)
         X      -2.4560      Y       1.4473      Z       0.0536
       Tot       2.8512
    Quadrupole Moments (Debye-Ang)
        XX    -108.9912     XY      -5.2434     YY     -95.3124
        XZ      -0.5323     YZ       1.9137     ZZ    -111.4823

 Total job time:  72.64s(wall), 72.44s(cpu)
        *  Thank you very much for using Q-Chem.  Have a nice day.  *
