 Q-Chem 5.2, Q-Chem, Inc., Pleasanton, CA (2019)
 Q-Chem 5.2.1 for Intel X86 EM64T Linux

User input:
--------------------------------------------------------------
$molecule
0 1
C         3.96504008510000   -1.00460387330000   -0.49004974460000
C         3.26375980400000    0.07416275090000   -0.16366484500000
C         1.81663425600000    0.14485401750000   -0.00526118500000
C         0.98615078280000   -0.97335191400000    0.00714354400000
C        -0.39230299610000   -0.88576356540000    0.16619859970000
C        -1.22216344190000   -2.08582983700000    0.24093186440000
C        -0.96733265390000   -3.23345965350000   -0.37247866320000
C        -0.96489036520000    0.38556523520000    0.30176721210000
S        -2.72698991530000    0.60301849140000    0.46176913670000
C        -3.24987847400000    0.02339356780000   -1.18493286600000
C        -0.16833121740000    1.51815959590000    0.31145039370000
C         1.19655889680000    1.38638169310000    0.16560239720000
F         1.94795701960000    2.50824185610000    0.17673368820000
H         5.03585464080000   -0.96224678860000   -0.58718995640000
H         3.51215222410000   -1.96305876920000   -0.67797870230000
H         3.77999878630000    1.01198612650000   -0.00582936480000
H         1.42970358420000   -1.95266048010000   -0.07212837090000
H        -2.11227265220000   -1.98358228060000    0.84999843670000
H        -0.11419429780000   -3.36437141830000   -1.01741224050000
H        -1.61711046820000   -4.08485692420000   -0.26497666730000
H        -4.33278456990000    0.08712877030000   -1.20006030830000
H        -2.92860308320000   -1.00225786870000   -1.33797181390000
H        -2.82565999890000    0.67684107980000   -1.94154814570000
H        -0.60752048280000    2.49600730840000    0.42991598130000
$end

$rem
BASIS = 6-31G*
GUI = 2
METHOD = B3LYP
PRINT_ORBITALS false
MOLDEN_FORMAT false
--------------------------------------------------------------

             Standard Nuclear Orientation (Angstroms)
    I     Atom           X                Y                Z
 ----------------------------------------------------------------
    1      C       3.8468112730    -1.4233294419    -0.3041833062
    2      C       3.2713668624    -0.2426892551    -0.1118007591
    3      C       1.8415178341     0.0067511802     0.0207607428
    4      C       0.8909169836    -1.0029185826     0.1517804926
    5      C      -0.4687979265    -0.7443840162     0.2838421877
    6      C      -1.4278693410    -1.8277385601     0.4861721920
    7      C      -1.3041871660    -3.0596435628     0.0114320676
    8      C      -0.8950418641     0.5899744451     0.2660752075
    9      S      -2.6214215103     1.0195911916     0.3797595389
   10      C      -3.2083362344     0.3159631475    -1.1955003333
   11      C       0.0234931550     1.6201763028     0.1549546556
   12      C       1.3647941850     1.3210596545     0.0409245930
   13      F       2.2372515217     2.3458702397    -0.0680466415
   14      H       4.9154842201    -1.5121514227    -0.3931942265
   15      H       3.2890516979    -2.3405255457    -0.3861348700
   16      H       3.8897221634     0.6436075398    -0.0566453200
   17      H       1.2217609940    -2.0281564288     0.1904843863
   18      H      -2.3000371682    -1.5573253906     1.0691911088
   19      H      -0.4720217445    -3.3583609431    -0.6043527178
   20      H      -2.0451726524    -3.8151516372     0.2083921094
   21      H      -4.2772888061     0.4979103535    -1.2303175969
   22      H      -3.0042991171    -0.7498830935    -1.2261648191
   23      H      -2.7146026705     0.8264137874    -2.0171383066
   24      H      -0.3031230119     2.6480036888     0.1554009617
 ----------------------------------------------------------------

    9    -923.7764852615      4.44e-06  Convergence criterion met
 Total energy in the final basis set =     -923.7764852615

                    Orbital Energies (a.u.)
 --------------------------------------------------------------

 Alpha MOs
 -- Occupied --
-88.8782 -24.7118 -10.2757 -10.2249 -10.2092 -10.2084 -10.2057 -10.2002
-10.1995 -10.1966 -10.1943 -10.1867 -10.1865  -7.9392  -5.9044  -5.9007
 -5.8938  -1.2231  -0.8857  -0.8226  -0.7981  -0.7797  -0.7378  -0.7290
 -0.6629  -0.6420  -0.6068  -0.5829  -0.5609  -0.5257  -0.5132  -0.4877
 -0.4664  -0.4562  -0.4532  -0.4457  -0.4325  -0.4290  -0.4240  -0.4059
 -0.3919  -0.3818  -0.3695  -0.3578  -0.3511  -0.3249  -0.3135  -0.2887
 -0.2461  -0.2348  -0.2185

          Ground-State Mulliken Net Atomic Charges

     Atom                 Charge (a.u.)
  ----------------------------------------
      1 C                    -0.345742
      2 C                    -0.111665
      3 C                     0.105640
      4 C                    -0.245886
      5 C                     0.167206
      6 C                    -0.149294
      7 C                    -0.344398
      8 C                    -0.160063
      9 S                     0.093423
     10 C                    -0.590735
     11 C                    -0.216978
     12 C                     0.316510
     13 F                    -0.289327
     14 H                     0.149813
     15 H                     0.143272
     16 H                     0.146737
     17 H                     0.138945
     18 H                     0.171075
     19 H                     0.143555
     20 H                     0.147747
     21 H                     0.183389
     22 H                     0.196085
     23 H                     0.187794
     24 H                     0.162897
  ----------------------------------------
  Sum of atomic charges =     0.000000

                    Cartesian Multipole Moments
 -----------------------------------------------------------------
    Charge (ESU x 10^10)
                 0.0000
    Dipole Moment (Debye)
         X      -0.1680      Y      -1.6679      Z      -1.1449
       Tot       2.0301
    Quadrupole Moments (Debye-Ang)
        XX     -77.9995     XY      -0.4722     YY     -80.2782
        XZ       2.9881     YZ       0.0926     ZZ     -84.7097

 Total job time:  36.48s(wall), 36.36s(cpu)
        *  Thank you very much for using Q-Chem.  Have a nice day.  *
