 Q-Chem 5.2, Q-Chem, Inc., Pleasanton, CA (2019)
 Q-Chem 5.2.1 for Intel X86 EM64T Linux

User input:
--------------------------------------------------------------
$molecule
0 1
C        -3.48796663870000    0.94043952300000   -0.02279677120000
C        -3.13245816410000   -0.34247224310000    0.01644378390000
C        -1.78283881640000   -0.85895266960000    0.01153685560000
C        -0.65431544560000   -0.12990384600000    0.00618960910000
C         0.65426994870000   -0.72300779500000    0.00176306930000
C         1.78049098870000   -0.01820068930000   -0.00154375210000
F         1.86670827370000    1.30814116200000   -0.00142190560000
F         3.00171241260000   -0.54412361010000   -0.00568704330000
H        -4.52311395030000    1.23435316550000   -0.01542957020000
H        -2.76848961550000    1.73957224540000   -0.06548135630000
H        -3.90845574600000   -1.09662791150000    0.05365542750000
H        -1.69616361190000   -1.93831186500000    0.01511609610000
H        -0.69052037950000    0.94926982400000    0.00674300780000
H         0.74267639170000   -1.79854947870000    0.00124677410000
$end

$rem
BASIS = 6-31G*
GUI = 2
METHOD = B3LYP
PRINT_ORBITALS false
MOLDEN_FORMAT false
--------------------------------------------------------------

             Standard Nuclear Orientation (Angstroms)
    I     Atom           X                Y                Z
 ----------------------------------------------------------------
    1      C       3.3555379734    -0.9051748632    -0.0154757763
    2      C       2.9812232160     0.3726951012     0.0114595662
    3      C       1.6241540879     0.8692110919     0.0023083298
    4      C       0.5064693630     0.1236369855     0.0047344893
    5      C      -0.8106966043     0.6973723608    -0.0047077843
    6      C      -1.9264347586    -0.0239100467    -0.0004790767
    7      F      -1.9931419633    -1.3513114427     0.0126291050
    8      F      -3.1552583444     0.4839415617    -0.0090342142
    9      H       4.3948978650    -1.1837566805    -0.0058503668
   10      H       2.6478691859    -1.7151743959    -0.0499418889
   11      H       3.7460652986     1.1385018781     0.0408584608
   12      H       1.5216204427     1.9471632980    -0.0045885978
   13      H       0.5585373045    -0.9548311787     0.0157916912
   14      H      -0.9149069912     1.7714422300    -0.0156618034
 ----------------------------------------------------------------

    9    -431.8609261898      6.48e-06  Convergence criterion met
 Total energy in the final basis set =     -431.8609261898

                    Orbital Energies (a.u.)
 --------------------------------------------------------------

 Alpha MOs
 -- Occupied --
-24.7414 -24.7375 -10.3569 -10.2037 -10.1993 -10.1911 -10.1906 -10.1800
 -1.2846  -1.2253  -0.8320  -0.7902  -0.7249  -0.6483  -0.6131  -0.5772
 -0.5383  -0.5286  -0.5187  -0.4761  -0.4542  -0.4413  -0.4270  -0.4227
 -0.4092  -0.3657  -0.3573  -0.3430  -0.2867  -0.2068

          Ground-State Mulliken Net Atomic Charges

     Atom                 Charge (a.u.)
  ----------------------------------------
      1 C                    -0.341683
      2 C                    -0.072476
      3 C                    -0.149712
      4 C                    -0.091505
      5 C                    -0.230533
      6 C                     0.533583
      7 F                    -0.237543
      8 F                    -0.244363
      9 H                     0.144392
     10 H                     0.141501
     11 H                     0.126708
     12 H                     0.122508
     13 H                     0.139770
     14 H                     0.159354
  ----------------------------------------
  Sum of atomic charges =     0.000000

                    Cartesian Multipole Moments
 -----------------------------------------------------------------
    Charge (ESU x 10^10)
                -0.0000
    Dipole Moment (Debye)
         X       0.7671      Y       0.6191      Z      -0.0018
       Tot       0.9858
    Quadrupole Moments (Debye-Ang)
        XX     -45.4733     XY      -0.2699     YY     -41.8327
        XZ       0.0514     YZ       0.0468     ZZ     -47.4168

 Total job time:  8.82s(wall), 8.77s(cpu)
        *  Thank you very much for using Q-Chem.  Have a nice day.  *
