 Q-Chem 5.4, Q-Chem, Inc., Pleasanton, CA (2021)
 Q-Chem 5.4.2 for Intel X86 EM64T Linux

User input:
--------------------------------------------------------------
$molecule
0 1
C           -1.66927374540000        4.67360671320000        0.18844566290000
C           -0.55781342310000        3.95989686070000        0.05976331390000
C           -0.45341760120000        2.50406868000000        0.05989410650000
C           -1.56374823300000        1.66498941130000        0.00289775910000
C           -1.43627711950000        0.27590962590000        0.00605836320000
C           -2.65526444060000       -0.51734090210000       -0.06447082740000
C           -2.77899260440000       -1.83513377930000       -0.11894011240000
F           -1.81916946340000       -2.74981252960000       -0.12284521910000
F           -3.95851348790000       -2.44935848720000       -0.18371459490000
C           -0.16280428860000       -0.28812728060000        0.07488899620000
C            0.95376522020000        0.53688303730000        0.12896335250000
C            2.33086116780000       -0.02153379490000        0.19542367870000
O            3.33112433130000        0.65317898930000        0.15591515060000
O            2.33237417910000       -1.35248544880000        0.31911451870000
C            3.60363462300000       -1.99880413900000        0.37163139540000
C            4.14882822030000       -2.26116923760000       -1.02489546400000
C            0.81019202580000        1.91888699750000        0.11454044360000
H           -1.64503541870000        5.74957710830000        0.18217134080000
H           -2.64126414180000        4.22754385680000        0.31258899030000
H            0.38930465630000        4.47405987150000       -0.04271275720000
H           -2.55196612260000        2.09460960370000       -0.05626727170000
H           -3.58704226420000        0.02963814190000       -0.07925032150000
H           -0.02302980150000       -1.35526169230000        0.08430174920000
H            3.42438300150000       -2.93364876550000        0.90681598680000
H            4.29850704300000       -1.36973601400000        0.93789118980000
H            3.43623756150000       -2.84490977670000       -1.60274810400000
H            5.08383649100000       -2.80933039950000       -0.95403072920000
H            4.33053959760000       -1.31845074200000       -1.53527564810000
H            1.70063953760000        2.52886708750000        0.15350243240000
$end

$rem
BASIS = 6-31G*
GUI = 2
METHOD = B3LYP
PRINT_ORBITALS false
MOLDEN_FORMAT false
$end
--------------------------------------------------------------

             Standard Nuclear Orientation (Angstroms)
    I     Atom           X                Y                Z
 ----------------------------------------------------------------
    1      C       3.4041431319    -3.5902794240    -0.0491869794
    2      C       2.1003933914    -3.3593234133    -0.1396352187
    3      C       1.4392738105    -2.0603076210    -0.0633917441
    4      C       2.1355363645    -0.8540063604    -0.0772639907
    5      C       1.4791202570     0.3744780425    -0.0014649795
    6      C       2.2929995317     1.5814825847    -0.0313215885
    7      C       1.8944944622     2.8447487773    -0.0169735972
    8      F       0.6550910120     3.3135849992     0.0275753964
    9      F       2.7416005464     3.8714087856    -0.0504063581
   10      C       0.0883090837     0.3952995791     0.0976263060
   11      C      -0.6192226104    -0.8003407069     0.1093197693
   12      C      -2.1033810052    -0.8248463499     0.2058232140
   13      O      -2.7640306394    -1.8325128318     0.1318300838
   14      O      -2.6186582918     0.3933321429     0.3988633544
   15      C      -4.0397019639     0.4915063291     0.4859592720
   16      C      -4.6731029464     0.5878828962    -0.8945745107
   17      C       0.0490483304    -2.0155178240     0.0226320989
   18      H       3.7992071797    -4.5894609967    -0.1116348587
   19      H       4.1292420493    -2.8080441535     0.0974026169
   20      H       1.4250918086    -4.1955927218    -0.2681615546
   21      H       3.2115555945    -0.8624595186    -0.1594818036
   22      H       3.3634853600     1.4409834530    -0.0753046088
   23      H      -0.4543820077     1.3224630184     0.1628620017
   24      H      -4.2260955363     1.3957599593     1.0691153186
   25      H      -4.4239894707    -0.3844691735     1.0190770560
   26      H      -4.2551433359     1.4295901564    -1.4416492677
   27      H      -5.7458493878     0.7255305070    -0.7945188066
   28      H      -4.4854008517    -0.3257588004    -1.4533695473
   29      H      -0.5338930025    -2.9246993389     0.0303062956
 ----------------------------------------------------------------

    9    -852.7131981393      6.71e-06  Convergence criterion met
 Total energy in the final basis set =     -852.7131981393

                    Orbital Energies (a.u.)
 --------------------------------------------------------------

 Alpha MOs
 -- Occupied --
-24.7494 -24.7386 -19.1914 -19.1322 -10.3622 -10.3136 -10.2425 -10.2148
-10.2080 -10.2045 -10.2040 -10.2002 -10.1971 -10.1958 -10.1951 -10.1860
-10.1802  -1.2909  -1.2294  -1.1087  -1.0171  -0.8811  -0.8212  -0.8037
 -0.7734  -0.7519  -0.7343  -0.6739  -0.6516  -0.6412  -0.6109  -0.5900
 -0.5773  -0.5511  -0.5269  -0.5240  -0.5150  -0.4983  -0.4933  -0.4748
 -0.4574  -0.4544  -0.4456  -0.4455  -0.4414  -0.4344  -0.4195  -0.4113
 -0.4082  -0.3953  -0.3831  -0.3794  -0.3730  -0.3611  -0.3511  -0.3393
 -0.3241  -0.2992  -0.2906  -0.2739  -0.2400  -0.2257

          Ground-State Mulliken Net Atomic Charges

     Atom                 Charge (a.u.)
  ----------------------------------------
      1 C                    -0.352104
      2 C                    -0.108596
      3 C                     0.172435
      4 C                    -0.247614
      5 C                     0.197120
      6 C                    -0.298751
      7 C                     0.548270
      8 F                    -0.230830
      9 F                    -0.247073
     10 C                    -0.231831
     11 C                     0.048481
     12 C                     0.602862
     13 O                    -0.492151
     14 O                    -0.465750
     15 C                    -0.046899
     16 C                    -0.464011
     17 C                    -0.235475
     18 H                     0.148677
     19 H                     0.143136
     20 H                     0.135584
     21 H                     0.130835
     22 H                     0.160776
     23 H                     0.162787
     24 H                     0.152472
     25 H                     0.169692
     26 H                     0.157761
     27 H                     0.152267
     28 H                     0.177753
     29 H                     0.160176
  ----------------------------------------
  Sum of atomic charges =     0.000000

                    Cartesian Multipole Moments
 -----------------------------------------------------------------
    Charge (ESU x 10^10)
                 0.0000
    Dipole Moment (Debye)
         X       0.7902      Y       0.7003      Z      -0.0179
       Tot       1.0560
    Quadrupole Moments (Debye-Ang)
        XX     -84.4074     XY      -9.5901     YY     -98.3136
        XZ      -0.6765     YZ       0.5675     ZZ     -97.8354

 Total job time:  88.87s(wall), 81.39s(cpu)
        *  Thank you very much for using Q-Chem.  Have a nice day.  *
