 Q-Chem 5.4, Q-Chem, Inc., Pleasanton, CA (2021)
 Q-Chem 5.4.2 for Intel X86 EM64T Linux

User input:
--------------------------------------------------------------
$molecule
0 1
C           -3.96294245370000       -1.49400821530000        0.00173890490000
C           -2.63595799930000       -1.51121554170000       -0.00073849280000
C           -1.81954444710000       -0.30208693380000       -0.00084135550000
C           -0.42607962430000       -0.39794045800000       -0.00123044800000
C            0.34113544320000        0.76475721210000       -0.00040490790000
C            1.79669793210000        0.78076796620000       -0.00004848500000
C            2.62547228750000       -0.25253804050000        0.00014653610000
F            2.32073560250000       -1.54229231470000       -0.00009386570000
F            3.94872200270000       -0.12241884330000        0.00073831670000
C           -0.33994249020000        1.98551039500000        0.00019895090000
C           -1.72489076460000        1.97402184030000        0.00012509410000
N           -2.44837469320000        0.87371185510000       -0.00016327830000
H           -4.54572538330000       -2.39890854330000        0.00201858390000
H           -4.49392510270000       -0.55778212370000        0.00368144830000
H           -2.08825573600000       -2.44428269690000       -0.00269605580000
H            0.03456835710000       -1.37200679300000       -0.00193757590000
H            2.26753528180000        1.75324440340000        0.00032494900000
H            0.20222512000000        2.91830496060000        0.00075623650000
H           -2.28601831320000        2.89991276510000        0.00053669290000
$end

$rem
BASIS = 6-31G*
GUI = 2
METHOD = B3LYP
PRINT_ORBITALS false
MOLDEN_FORMAT false
$end
--------------------------------------------------------------

             Standard Nuclear Orientation (Angstroms)
    I     Atom           X                Y                Z
 ----------------------------------------------------------------
    1      C       3.9035069768     1.4030302024     0.0016776717
    2      C       2.5774740069     1.4561390044    -0.0007697221
    3      C       1.7286408269     0.2695450095    -0.0008838325
    4      C       0.3382800150     0.4030700931    -0.0012395234
    5      C      -0.4601162715    -0.7384412823    -0.0004251970
    6      C      -1.9155790011    -0.7150591931    -0.0000367126
    7      C      -2.7160889886     0.3402947649     0.0002019530
    8      F      -2.3765636166     1.6213307004    -0.0000138296
    9      F      -4.0423751225     0.2460298540     0.0008200660
   10      C       0.1876791424    -1.9771771859     0.0001337447
   11      C       1.5724311521    -2.0031690308     0.0000292906
   12      N       2.3254241366    -0.9228391600    -0.0002484126
   13      H       4.5105627824     2.2918292744     0.0019663974
   14      H       4.4089612963     0.4527786923     0.0035855743
   15      H       2.0552207154     2.4036851618    -0.0026923484
   16      H      -0.0958414222     1.3892447290    -0.0019126569
   17      H      -2.4125587897    -1.6744388521     0.0003235330
   18      H      -0.3795310060    -2.8949593378     0.0006803987
   19      H       2.1082989655    -2.9439048303     0.0004058282
 ----------------------------------------------------------------

    9    -601.5558649858      6.74e-06  Convergence criterion met
 Total energy in the final basis set =     -601.5558649858

                    Orbital Energies (a.u.)
 --------------------------------------------------------------

 Alpha MOs
 -- Occupied --
-24.7568 -24.7464 -14.3213 -10.3716 -10.2257 -10.2241 -10.2206 -10.2144
-10.1969 -10.1948 -10.1853 -10.1778  -1.2988  -1.2372  -0.9490  -0.8452
 -0.7987  -0.7764  -0.7382  -0.6662  -0.6394  -0.6299  -0.5889  -0.5708
 -0.5316  -0.5276  -0.5127  -0.4885  -0.4662  -0.4527  -0.4442  -0.4402
 -0.4363  -0.4208  -0.4103  -0.3992  -0.3783  -0.3510  -0.3356  -0.2982
 -0.2524  -0.2462  -0.2323

          Ground-State Mulliken Net Atomic Charges

     Atom                 Charge (a.u.)
  ----------------------------------------
      1 C                    -0.332367
      2 C                    -0.105408
      3 C                     0.319861
      4 C                    -0.251442
      5 C                     0.216971
      6 C                    -0.298679
      7 C                     0.558564
      8 F                    -0.228571
      9 F                    -0.241801
     10 C                    -0.210538
     11 C                     0.042174
     12 N                    -0.486356
     13 H                     0.141537
     14 H                     0.171836
     15 H                     0.125510
     16 H                     0.141918
     17 H                     0.165450
     18 H                     0.133349
     19 H                     0.137993
  ----------------------------------------
  Sum of atomic charges =     0.000000

                    Cartesian Multipole Moments
 -----------------------------------------------------------------
    Charge (ESU x 10^10)
                 0.0000
    Dipole Moment (Debye)
         X      -1.3505      Y      -0.4513      Z       0.0005
       Tot       1.4239
    Quadrupole Moments (Debye-Ang)
        XX     -70.1666     XY       4.1867     YY     -59.8283
        XZ       0.0069     YZ      -0.0058     ZZ     -69.1822

 Total job time:  41.72s(wall), 36.91s(cpu)
        *  Thank you very much for using Q-Chem.  Have a nice day.  *
