 Q-Chem 5.4, Q-Chem, Inc., Pleasanton, CA (2021)
 Q-Chem 5.4.2 for Intel X86 EM64T Linux

User input:
--------------------------------------------------------------
$molecule
0 1
C           -3.96295653990000       -1.49388537480000        0.00745467600000
C           -2.63601558800000       -1.51119457340000       -0.00412493640000
C           -1.81951547050000       -0.30212039110000       -0.00330983380000
C           -0.42606462670000       -0.39795490440000       -0.00435748760000
C            0.34115396780000        0.76475093960000       -0.00162732150000
C            1.79670903990000        0.78080053840000       -0.00036013190000
C            2.62544519650000       -0.25252486300000        0.00068072520000
F            2.32070475260000       -1.54238832380000        0.00005324970000
F            3.94870774870000       -0.12237440890000        0.00267391320000
C           -0.33992302180000        1.98549324460000        0.00062275070000
C           -1.72485836440000        1.97398885650000        0.00074435040000
N           -2.44833180940000        0.87368399600000       -0.00075710040000
H           -4.54584369210000       -2.39871245620000        0.00743353400000
H           -4.49381795730000       -0.55764461700000        0.01752742150000
H           -2.08842867060000       -2.44428756380000       -0.01377059860000
H            0.03456849190000       -1.37201409180000       -0.00669498880000
H            2.26760514220000        1.75331232910000        0.00066313890000
H            0.20223956380000        2.91828914650000        0.00245857410000
H           -2.28598271240000        2.89988264930000        0.00246953920000
$end

$rem
BASIS = 6-31G*
GUI = 2
METHOD = B3LYP
PRINT_ORBITALS false
MOLDEN_FORMAT false
$end
--------------------------------------------------------------

             Standard Nuclear Orientation (Angstroms)
    I     Atom           X                Y                Z
 ----------------------------------------------------------------
    1      C       3.9035177108     1.4029101872     0.0072169643
    2      C       2.5775299575     1.4561203503    -0.0042347681
    3      C       1.7286123053     0.2695826415    -0.0034797709
    4      C       0.3382648134     0.4030878446    -0.0043842984
    5      C      -0.4601344951    -0.7384322459    -0.0017136377
    6      C      -1.9155907574    -0.7150899647    -0.0003101603
    7      C      -2.7160623928     0.3402818733     0.0009269163
    8      F      -2.3765309113     1.6214270613     0.0004172990
    9      F      -4.0423619890     0.2459852663     0.0030308556
   10      C       0.1876609911    -1.9771572047     0.0003328997
   11      C       1.5724005205    -2.0031322807     0.0003243953
   12      N       2.3253822894    -0.9228067584    -0.0011204999
   13      H       4.5106753277     2.2916334892     0.0072434743
   14      H       4.4088517337     0.4526464014     0.0171328022
   15      H       2.0553914221     2.4036900503    -0.0137222938
   16      H      -0.0958425797     1.3892549909    -0.0065672525
   17      H      -2.4126297349    -1.6745036959     0.0006471301
   18      H      -0.3795436189    -2.8949412708     0.0021140242
   19      H       2.1082656072    -2.9438708100     0.0018909823
 ----------------------------------------------------------------

    9    -601.5558631472      6.74e-06  Convergence criterion met
 Total energy in the final basis set =     -601.5558631472

                    Orbital Energies (a.u.)
 --------------------------------------------------------------

 Alpha MOs
 -- Occupied --
-24.7568 -24.7464 -14.3213 -10.3716 -10.2257 -10.2241 -10.2206 -10.2144
-10.1969 -10.1948 -10.1853 -10.1778  -1.2987  -1.2372  -0.9490  -0.8452
 -0.7987  -0.7764  -0.7382  -0.6662  -0.6394  -0.6299  -0.5889  -0.5708
 -0.5316  -0.5276  -0.5127  -0.4885  -0.4662  -0.4527  -0.4442  -0.4402
 -0.4363  -0.4208  -0.4103  -0.3992  -0.3784  -0.3510  -0.3356  -0.2982
 -0.2524  -0.2462  -0.2323

          Ground-State Mulliken Net Atomic Charges

     Atom                 Charge (a.u.)
  ----------------------------------------
      1 C                    -0.332356
      2 C                    -0.105419
      3 C                     0.319853
      4 C                    -0.251430
      5 C                     0.216957
      6 C                    -0.298650
      7 C                     0.558578
      8 F                    -0.228638
      9 F                    -0.241808
     10 C                    -0.210532
     11 C                     0.042174
     12 N                    -0.486350
     13 H                     0.141538
     14 H                     0.171838
     15 H                     0.125515
     16 H                     0.141921
     17 H                     0.165468
     18 H                     0.133349
     19 H                     0.137991
  ----------------------------------------
  Sum of atomic charges =     0.000000

                    Cartesian Multipole Moments
 -----------------------------------------------------------------
    Charge (ESU x 10^10)
                 0.0000
    Dipole Moment (Debye)
         X      -1.3501      Y      -0.4518      Z       0.0021
       Tot       1.4238
    Quadrupole Moments (Debye-Ang)
        XX     -70.1667     XY       4.1882     YY     -59.8288
        XZ       0.0318     YZ      -0.0262     ZZ     -69.1819

 Total job time:  53.62s(wall), 37.55s(cpu)
        *  Thank you very much for using Q-Chem.  Have a nice day.  *
