 Q-Chem 5.4, Q-Chem, Inc., Pleasanton, CA (2021)
 Q-Chem 5.4.2 for Intel X86 EM64T Linux

User input:
--------------------------------------------------------------
$molecule
0 1
C           -4.77074506350000        0.07057165960000       -0.16972620210000
C           -3.74381371010000       -0.75268552870000        0.00819500650000
C           -2.33286382870000       -0.39456486200000        0.05026807270000
C           -1.38226328760000       -1.40154365920000        0.22470125150000
C           -0.03775224100000       -1.10550514870000        0.26939888270000
C            0.41537454690000        0.20866863950000        0.14250083720000
C            1.83340378160000        0.53299907030000        0.20699813930000
C            2.85642355850000       -0.27969111640000       -0.00902657370000
F            2.82866600730000       -1.56082210830000       -0.35920059230000
F            4.12841899400000        0.11216459830000        0.08375565770000
C           -0.52887162930000        1.23620197320000       -0.02950650700000
C           -0.10593917110000        2.66738239630000       -0.18219890150000
C           -1.87385222970000        0.91686468610000       -0.07377251410000
H           -5.78304374430000       -0.29510243660000       -0.18584444010000
H           -4.65356451030000        1.13178451920000       -0.30686950700000
H           -3.93931746740000       -1.81051542050000        0.13712205920000
H           -1.70532681560000       -2.42729726410000        0.32839602520000
H            0.67036604260000       -1.90442412790000        0.41936999570000
H            2.10534317430000        1.54847553050000        0.45070032430000
H            0.37665492350000        3.02737989680000        0.72639147960000
H           -0.96925204240000        3.29823115820000       -0.37750287970000
H            0.59478179110000        2.77942098190000       -1.00803930030000
H           -2.58741673340000        1.71535883800000       -0.20930267960000
$end

$rem
BASIS = 6-31G*
GUI = 2
METHOD = B3LYP
PRINT_ORBITALS false
MOLDEN_FORMAT false
$end
--------------------------------------------------------------

             Standard Nuclear Orientation (Angstroms)
    I     Atom           X                Y                Z
 ----------------------------------------------------------------
    1      C       4.6505025997     0.0795860345    -0.1536737083
    2      C       3.6035350570     0.8836916999    -0.0078333758
    3      C       2.2013246710     0.4936097617     0.0415856235
    4      C       1.2263148669     1.4829804849     0.1778796972
    5      C      -0.1109627737     1.1566043082     0.2280168635
    6      C      -0.5321768046    -0.1716070320     0.1448716801
    7      C      -1.9423647753    -0.5273271451     0.2155125257
    8      C      -2.9834612284     0.2527802775    -0.0319790191
    9      F      -2.9846368083     1.5214220524    -0.4259785223
   10      F      -4.2461760971    -0.1659441573     0.0697698853
   11      C       0.4369584172    -1.1815828082     0.0116876982
   12      C       0.0488223700    -2.6268628195    -0.0930993851
   13      C       1.7741499326    -0.8319022165    -0.0388190607
   14      H       5.6538859885     0.4685790545    -0.1788166341
   15      H       4.5591698985    -0.9882091569    -0.2545898544
   16      H       3.7732841532     1.9496964729     0.0852636291
   17      H       1.5244582623     2.5191187841     0.2473134635
   18      H      -0.8385106220     1.9430522103     0.3478842876
   19      H      -2.1911507201    -1.5400406864     0.4930932643
   20      H      -0.4290188218    -2.9668639400     0.8256490977
   21      H       0.9277222429    -3.2432361458    -0.2635160919
   22      H      -0.6454478761    -2.7839215349    -0.9170509984
   23      H       2.5070696491    -1.6172993861    -0.1442496657
 ----------------------------------------------------------------

    9    -624.8318397229      7.18e-06  Convergence criterion met
 Total energy in the final basis set =     -624.8318397229

                    Orbital Energies (a.u.)
 --------------------------------------------------------------

 Alpha MOs
 -- Occupied --
-24.7430 -24.7332 -10.3563 -10.2020 -10.2015 -10.1973 -10.1926 -10.1892
-10.1854 -10.1853 -10.1843 -10.1837 -10.1789  -1.2838  -1.2230  -0.8719
 -0.8173  -0.7833  -0.7688  -0.7219  -0.6918  -0.6491  -0.6183  -0.5939
 -0.5693  -0.5591  -0.5287  -0.5179  -0.4884  -0.4831  -0.4493  -0.4440
 -0.4387  -0.4353  -0.4283  -0.4176  -0.4109  -0.4075  -0.3880  -0.3715
 -0.3697  -0.3427  -0.3354  -0.3163  -0.2661  -0.2471  -0.2081

          Ground-State Mulliken Net Atomic Charges

     Atom                 Charge (a.u.)
  ----------------------------------------
      1 C                    -0.352657
      2 C                    -0.117341
      3 C                     0.197627
      4 C                    -0.207003
      5 C                    -0.192059
      6 C                     0.134713
      7 C                    -0.310166
      8 C                     0.550893
      9 F                    -0.234772
     10 F                    -0.250070
     11 C                     0.132483
     12 C                    -0.538292
     13 C                    -0.262375
     14 H                     0.143823
     15 H                     0.141980
     16 H                     0.126701
     17 H                     0.127450
     18 H                     0.135979
     19 H                     0.161536
     20 H                     0.163868
     21 H                     0.160421
     22 H                     0.167308
     23 H                     0.119953
  ----------------------------------------
  Sum of atomic charges =     0.000000

                    Cartesian Multipole Moments
 -----------------------------------------------------------------
    Charge (ESU x 10^10)
                 0.0000
    Dipole Moment (Debye)
         X       0.6935      Y      -0.8521      Z       0.1769
       Tot       1.1128
    Quadrupole Moments (Debye-Ang)
        XX     -74.5631     XY       1.3027     YY     -67.6035
        XZ      -0.8739     YZ       0.7160     ZZ     -76.9126

 Total job time:  46.53s(wall), 45.72s(cpu)
        *  Thank you very much for using Q-Chem.  Have a nice day.  *
