 Q-Chem 5.2, Q-Chem, Inc., Pleasanton, CA (2019)
 Q-Chem 5.2.1 for Intel X86 EM64T Linux

User input:
--------------------------------------------------------------
$molecule
0 1
C        -2.62138041270000    3.25718536760000   -0.11000171470000
C        -2.84155838030000    1.95013467400000   -0.23333847500000
C        -1.86767522670000    0.91539661530000   -0.01300083230000
C        -0.54721594060000    1.01277521740000    0.34746156600000
C         0.11380113130000   -0.22217051640000    0.47100429250000
C         1.56440945520000   -0.42186268380000    0.82833033350000
C         2.35017001850000   -1.03915165240000   -0.34300324540000
C         2.62064705880000   -0.02053506330000   -1.44321932440000
C         3.44681290880000    1.13355644080000   -0.88924326170000
C         2.66812975850000    1.82525863840000    0.22268535130000
C         2.28406006950000    0.83929979670000    1.32623300640000
C        -0.73322729320000   -1.28827547430000    0.22379692720000
C        -0.45441343920000   -2.69530676720000    0.32754157470000
C        -1.26134526020000   -3.66393495620000   -0.09865204710000
S        -2.32833687980000   -0.74577132260000   -0.20428715110000
H        -3.40256516740000    3.97434231200000   -0.28955086160000
H        -1.66240509560000    3.65481142970000    0.17371198480000
H        -3.82369982250000    1.59668006270000   -0.52011402810000
H        -0.08619417840000    1.96282887540000    0.53686896220000
H         1.58335145990000   -1.14611340570000    1.65482072630000
H         1.79875922300000   -1.88545232310000   -0.75504075260000
H         3.30531747270000   -1.41161159320000    0.03659330700000
H         1.67261896730000    0.35933396900000   -1.83105009910000
H         3.15157168920000   -0.50428715230000   -2.26589437820000
H         3.67789449660000    1.84934614180000   -1.68087111670000
H         4.39181564200000    0.74900205180000   -0.49771475460000
H         1.78037068100000    2.28055880200000   -0.21635926410000
H         3.26870472000000    2.62702652820000    0.65960119240000
H         1.66723223340000    1.33967985050000    2.07611219120000
H         3.20292709220000    0.51643432300000    1.82358764740000
H         0.48125554450000   -2.95067728070000    0.80765599250000
H        -2.19744555910000   -3.44408197890000   -0.58493379780000
H        -1.01015069490000   -4.70266841640000    0.02282381490000
$end

$rem
BASIS = 6-31G*
GUI = 2
METHOD = B3LYP
PRINT_ORBITALS false
MOLDEN_FORMAT false
--------------------------------------------------------------

             Standard Nuclear Orientation (Angstroms)
    I     Atom           X                Y                Z
 ----------------------------------------------------------------
    1      C      -2.4083365596    -3.4558702310     0.1242176613
    2      C      -2.7377835018    -2.1729750366     0.2573207865
    3      C      -1.8589582444    -1.0578005966     0.0298739595
    4      C      -0.5399416793    -1.0403462789    -0.3481724749
    5      C       0.0113678261     0.2471291066    -0.4737204775
    6      C       1.4346900044     0.5716841273    -0.8487423248
    7      C       2.1803771961     1.2490426757     0.3155702172
    8      C       2.5516203506     0.2527199426     1.4067771349
    9      C       3.4659528982    -0.8241365814     0.8360383955
   10      C       2.7344718595    -1.5752772172    -0.2693610139
   11      C       2.2528095795    -0.6211966587    -1.3626009357
   12      C      -0.9203248142     1.2358174659    -0.2099164460
   13      C      -0.7642324667     2.6619641835    -0.3098058600
   14      C      -1.6452544561     3.5562177017     0.1319309791
   15      S      -2.4573533877     0.5570524400     0.2359114691
   16      H      -3.1228816786    -4.2379743673     0.3100670439
   17      H      -1.4227541605    -3.7688066505    -0.1739965891
   18      H      -3.7426279305    -1.9060424662     0.5586625685
   19      H      -0.0019572541    -1.9466755785    -0.5485674328
   20      H       1.3806028095     1.2983418989    -1.6715590331
   21      H       1.5641867717     2.0433382705     0.7391944221
   22      H       3.0950290706     1.7034345618    -0.0743869237
   23      H       1.6448045495    -0.2084790667     1.8048362142
   24      H       3.0501862656     0.7766847205     2.2250584012
   25      H       3.7679368687    -1.5208283545     1.6208023803
   26      H       4.3693047322    -0.3585128404     0.4343459615
   27      H       1.8948319098    -2.1066875242     0.1787265149
   28      H       3.3955025213    -2.3208936914    -0.7182619198
   29      H       1.6710566435    -1.1693814055    -2.1070689163
   30      H       3.1339839797    -0.2188296108    -1.8700975304
   31      H       0.1396814543     2.9984498835    -0.8006392305
   32      H      -2.5525521542     3.2550563704     0.6291248867
   33      H      -1.4854281497     4.6131311939     0.0127180700
 ----------------------------------------------------------------

    9    -942.4761272532      2.85e-06  Convergence criterion met
 Total energy in the final basis set =     -942.4761272532

                    Orbital Energies (a.u.)
 --------------------------------------------------------------

 Alpha MOs
 -- Occupied --
-88.8993 -10.2149 -10.2105 -10.1972 -10.1950 -10.1923 -10.1917 -10.1831
-10.1812 -10.1792 -10.1789 -10.1753 -10.1752 -10.1729 -10.1714  -7.9613
 -5.9252  -5.9217  -5.9183  -0.8896  -0.8370  -0.8047  -0.7742  -0.7597
 -0.7413  -0.7169  -0.6967  -0.6257  -0.6158  -0.6046  -0.5814  -0.5526
 -0.5328  -0.5208  -0.4857  -0.4762  -0.4583  -0.4483  -0.4448  -0.4409
 -0.4250  -0.4095  -0.3945  -0.3920  -0.3761  -0.3733  -0.3720  -0.3631
 -0.3586  -0.3507  -0.3393  -0.3286  -0.3205  -0.3134  -0.2988  -0.2938
 -0.2670  -0.2438  -0.1937

          Ground-State Mulliken Net Atomic Charges

     Atom                 Charge (a.u.)
  ----------------------------------------
      1 C                    -0.343312
      2 C                    -0.088711
      3 C                    -0.130648
      4 C                    -0.177366
      5 C                     0.158720
      6 C                    -0.168613
      7 C                    -0.264986
      8 C                    -0.261273
      9 C                    -0.254538
     10 C                    -0.265108
     11 C                    -0.273856
     12 C                    -0.209906
     13 C                    -0.058780
     14 C                    -0.377757
     15 S                     0.234632
     16 H                     0.146279
     17 H                     0.141661
     18 H                     0.136476
     19 H                     0.141361
     20 H                     0.134898
     21 H                     0.144904
     22 H                     0.125599
     23 H                     0.142751
     24 H                     0.130578
     25 H                     0.129930
     26 H                     0.126164
     27 H                     0.137302
     28 H                     0.130962
     29 H                     0.137057
     30 H                     0.131821
     31 H                     0.143208
     32 H                     0.156086
     33 H                     0.144465
  ----------------------------------------
  Sum of atomic charges =     0.000000

                    Cartesian Multipole Moments
 -----------------------------------------------------------------
    Charge (ESU x 10^10)
                -0.0000
    Dipole Moment (Debye)
         X       1.0424      Y      -0.2557      Z      -0.2511
       Tot       1.1022
    Quadrupole Moments (Debye-Ang)
        XX     -95.5335     XY       1.7230     YY     -92.3320
        XZ      -2.8924     YZ      -0.4238     ZZ    -101.1482

 Total job time:  63.52s(wall), 63.34s(cpu)
        *  Thank you very much for using Q-Chem.  Have a nice day.  *
