 Q-Chem 5.2, Q-Chem, Inc., Pleasanton, CA (2019)
 Q-Chem 5.2.1 for Intel X86 EM64T Linux

User input:
--------------------------------------------------------------
$molecule
0 1
C         3.07001861450000    2.91355316680000   -0.10694730400000
C         1.79785279730000    2.61108665830000    0.11954774910000
C         1.19942340800000    1.28115682860000    0.05989968470000
C         1.95748422720000    0.11433244390000   -0.00243990570000
C         1.36595882870000   -1.14418638350000   -0.06430552350000
C         2.14072487700000   -2.37983958210000   -0.12423040830000
C         3.44239240260000   -2.50574336450000    0.10186595180000
C        -0.02770010500000   -1.22997785190000   -0.07380939360000
C        -0.78937975190000   -0.07649124370000   -0.00212387910000
C        -2.28949232600000   -0.14163375860000    0.00199105720000
F        -2.77334633050000   -1.38788167710000   -0.08808957890000
F        -2.81760735930000    0.38867820620000    1.12253745950000
F        -2.83112871650000    0.54895114610000   -1.02018260110000
C        -0.19109845090000    1.17236818280000    0.06983515530000
H         3.42107661620000    3.92908895970000   -0.04625669540000
H         3.80862186280000    2.17591401370000   -0.37072279140000
H         1.10181763210000    3.40561826380000    0.35718410110000
H         3.03247819180000    0.18809352270000   -0.00273306920000
H         1.55990694090000   -3.26219387000000   -0.36176725900000
H         4.07338390880000   -1.67425934260000    0.36575829670000
H         3.92890117340000   -3.46374352040000    0.04060630680000
H        -0.51079657790000   -2.19390666270000   -0.12688287410000
H        -0.80685903840000    2.05801562230000    0.12280008870000
$end

$rem
BASIS = 6-31G*
GUI = 2
METHOD = B3LYP
PRINT_ORBITALS false
MOLDEN_FORMAT false
--------------------------------------------------------------

             Standard Nuclear Orientation (Angstroms)
    I     Atom           X                Y                Z
 ----------------------------------------------------------------
    1      C       3.0762114566     2.7533942197    -0.1384233094
    2      C       1.7902082094     2.5180071883     0.0895689226
    3      C       1.1259141367     1.2190901330     0.0457871219
    4      C       1.8245849228     0.0150305327    -0.0002692194
    5      C       1.1707697229    -1.2129456963    -0.0471665107
    6      C       1.8826703851    -2.4865482915    -0.0898996990
    7      C       3.1761148340    -2.6746293281     0.1401799718
    8      C      -0.2254255318    -1.2288861096    -0.0581408986
    9      C      -0.9283906211    -0.0378451058    -0.0025759509
   10      C      -2.4298864003    -0.0276534222    -0.0003920041
   11      F      -2.9755165825    -1.2491343071    -0.0754602734
   12      F      -2.9320877107     0.5427980615     1.1123251463
   13      F      -2.9349858662     0.6760407900    -1.0322861184
   14      C      -0.2683244975     1.1802755259     0.0545495591
   15      H       3.4776789494     3.7507514031    -0.0900444088
   16      H       3.7772122469     1.9763356497    -0.3914087975
   17      H       1.1346061401     3.3494128575     0.3157701586
   18      H       2.9019248187     0.0348042588     0.0004757696
   19      H       1.2586226289    -3.3416546161    -0.3172318159
   20      H       3.8476905050    -1.8725019441     0.3946065961
   21      H       3.6140456171    -3.6565188369     0.0920400872
   22      H      -0.7561865837    -2.1679891870    -0.0998046055
   23      H      -0.8389625879     2.0962816389     0.0950803260
 ----------------------------------------------------------------

    8    -724.0827173396      7.17e-06  Convergence criterion met
 Total energy in the final basis set =     -724.0827173396

                    Orbital Energies (a.u.)
 --------------------------------------------------------------

 Alpha MOs
 -- Occupied --
-24.7233 -24.7154 -24.7152 -10.4271 -10.2152 -10.2113 -10.2108 -10.2058
-10.2057 -10.2016 -10.2006 -10.2004 -10.1906 -10.1905  -1.3023  -1.2130
 -1.2065  -0.8875  -0.8173  -0.8094  -0.7545  -0.7407  -0.6962  -0.6458
 -0.6380  -0.6029  -0.5767  -0.5760  -0.5654  -0.5311  -0.5130  -0.4925
 -0.4818  -0.4550  -0.4537  -0.4518  -0.4367  -0.4237  -0.4160  -0.4054
 -0.4044  -0.3931  -0.3912  -0.3905  -0.3755  -0.3536  -0.3506  -0.3279
 -0.3002  -0.2456  -0.2348

          Ground-State Mulliken Net Atomic Charges

     Atom                 Charge (a.u.)
  ----------------------------------------
      1 C                    -0.348148
      2 C                    -0.112642
      3 C                     0.173412
      4 C                    -0.233332
      5 C                     0.175619
      6 C                    -0.113732
      7 C                    -0.348368
      8 C                    -0.237657
      9 C                    -0.003017
     10 C                     0.779954
     11 F                    -0.267201
     12 F                    -0.267245
     13 F                    -0.267243
     14 C                    -0.231572
     15 H                     0.150507
     16 H                     0.146817
     17 H                     0.135017
     18 H                     0.131951
     19 H                     0.134650
     20 H                     0.146736
     21 H                     0.150331
     22 H                     0.152496
     23 H                     0.152670
  ----------------------------------------
  Sum of atomic charges =     0.000000

                    Cartesian Multipole Moments
 -----------------------------------------------------------------
    Charge (ESU x 10^10)
                 0.0000
    Dipole Moment (Debye)
         X       2.7242      Y      -0.0520      Z      -0.0089
       Tot       2.7247
    Quadrupole Moments (Debye-Ang)
        XX     -78.4576     XY       0.1826     YY     -70.2491
        XZ       0.0140     YZ       0.8774     ZZ     -82.9724

 Total job time:  29.76s(wall), 29.65s(cpu)
        *  Thank you very much for using Q-Chem.  Have a nice day.  *
