 Q-Chem 5.2, Q-Chem, Inc., Pleasanton, CA (2019)
 Q-Chem 5.2.1 for Intel X86 EM64T Linux

User input:
--------------------------------------------------------------
$molecule
0 1
C         4.10125128900000    1.40478183480000    0.10798923870000
C         3.70893123390000    0.13717154930000    0.04904472850000
C         2.33346148590000   -0.33566879390000   -0.01906299130000
C         2.07586110250000   -1.71126307790000   -0.05106004900000
C         0.79150268220000   -2.20917187550000   -0.10676355120000
C        -0.31698038740000   -1.35528096400000   -0.14085180060000
C        -1.68914624160000   -1.83826808540000   -0.18920137890000
C        -2.08604117300000   -3.02798396830000    0.24831233450000
C        -0.04109946590000    0.00911780150000   -0.12692688600000
S        -1.34117103610000    1.20966991410000   -0.13777455650000
O        -0.82654102950000    2.52193356090000    0.03784846330000
O        -2.34094695060000    0.97483931440000   -1.12064439010000
F        -2.04178909350000    0.80742053510000    1.30247777680000
C         1.23172670440000    0.52152147860000   -0.05660724110000
H         5.14496959620000    1.66242571860000    0.15779572990000
H         3.40968295430000    2.22908959910000    0.11125884920000
H         4.45469414510000   -0.64785543170000    0.05239317170000
H         2.90833752830000   -2.40012219160000   -0.03021425060000
H         0.63453876450000   -3.27588934800000   -0.14036086240000
H        -2.40695874490000   -1.14131383360000   -0.59488572500000
H        -1.41125629510000   -3.73690297930000    0.69917735320000
H        -3.11818568850000   -3.32574756620000    0.19089644370000
H         1.33939712610000    1.59276112850000   -0.02854786420000
$end

$rem
BASIS = 6-31G*
GUI = 2
METHOD = B3LYP
PRINT_ORBITALS false
MOLDEN_FORMAT false
--------------------------------------------------------------

             Standard Nuclear Orientation (Angstroms)
    I     Atom           X                Y                Z
 ----------------------------------------------------------------
    1      C       4.1261290576    -1.1918966985    -0.1030628834
    2      C       3.6547792241     0.0482431121    -0.0389699702
    3      C       2.2520896255     0.4334372997     0.0259993085
    4      C       1.9085148280     1.7899521943     0.0642759663
    5      C       0.5952290823     2.2059525546     0.1173499989
    6      C      -0.4575781406     1.2839981725     0.1423196168
    7      C      -1.8575329049     1.6796366605     0.1875989426
    8      C      -2.3266855314     2.8445219034    -0.2451895763
    9      C      -0.0965300521    -0.0602970525     0.1222496566
   10      S      -1.3186944011    -1.3401183732     0.1213410117
   11      O      -0.7220332139    -2.6164949605    -0.0591627350
   12      O      -2.3349414678    -1.1739899043     1.1013275579
   13      F      -2.0377471713    -0.9745977516    -1.3196151978
   14      C       1.2062114373    -0.4914056540     0.0544350116
   15      H       5.1841443750    -1.3832453827    -0.1499481839
   16      H       3.4876947081    -2.0579519974    -0.1135768217
   17      H       4.3497919721     0.8785339582    -0.0350605330
   18      H       2.6961730976     2.5298062218     0.0505321060
   19      H       0.3714776341     3.2605115342     0.1559927848
   20      H      -2.5316976143     0.9367511338     0.5866012564
   21      H      -1.6960440211     3.5969002293    -0.6894847493
   22      H      -3.3756975049     3.0765944777    -0.1904333391
   23      H       1.3810300132    -1.5536024731     0.0211030616
 ----------------------------------------------------------------

    9   -1034.8530066743      6.84e-06  Convergence criterion met
 Total energy in the final basis set =    -1034.8530066743

                    Orbital Energies (a.u.)
 --------------------------------------------------------------

 Alpha MOs
 -- Occupied --
-89.1498 -24.7193 -19.1735 -19.1733 -10.2468 -10.2340 -10.2252 -10.2240
-10.2193 -10.2173 -10.2097 -10.2036 -10.1991 -10.1989  -8.1746  -6.1411
 -6.1383  -6.1367  -1.2320  -1.1295  -1.0481  -0.9062  -0.8367  -0.8043
 -0.7869  -0.7417  -0.6979  -0.6677  -0.6185  -0.5979  -0.5931  -0.5487
 -0.5274  -0.5180  -0.5068  -0.4889  -0.4731  -0.4665  -0.4598  -0.4389
 -0.4343  -0.4258  -0.4168  -0.4107  -0.3917  -0.3820  -0.3758  -0.3736
 -0.3490  -0.3410  -0.3404  -0.3259  -0.2934  -0.2863  -0.2364

          Ground-State Mulliken Net Atomic Charges

     Atom                 Charge (a.u.)
  ----------------------------------------
      1 C                    -0.344893
      2 C                    -0.115961
      3 C                     0.187460
      4 C                    -0.186650
      5 C                    -0.171685
      6 C                     0.182267
      7 C                    -0.154172
      8 C                    -0.343561
      9 C                    -0.251501
     10 S                     1.226550
     11 O                    -0.456039
     12 O                    -0.467970
     13 F                    -0.324951
     14 C                    -0.220832
     15 H                     0.155714
     16 H                     0.157697
     17 H                     0.135839
     18 H                     0.145660
     19 H                     0.147944
     20 H                     0.199856
     21 H                     0.148712
     22 H                     0.160027
     23 H                     0.190491
  ----------------------------------------
  Sum of atomic charges =     0.000000

                    Cartesian Multipole Moments
 -----------------------------------------------------------------
    Charge (ESU x 10^10)
                 0.0000
    Dipole Moment (Debye)
         X       3.4126      Y       3.8217      Z      -0.2470
       Tot       5.1296
    Quadrupole Moments (Debye-Ang)
        XX     -80.3867     XY      -5.2871     YY     -83.8143
        XZ       1.1471     YZ      -0.3542     ZZ     -91.7228

 Total job time:  38.37s(wall), 37.94s(cpu)
        *  Thank you very much for using Q-Chem.  Have a nice day.  *
