 Q-Chem 5.2, Q-Chem, Inc., Pleasanton, CA (2019)
 Q-Chem 5.2.1 for Intel X86 EM64T Linux

User input:
--------------------------------------------------------------
$molecule
0 1
C         3.35079281500000    2.09737192960000    0.59672357110000
C         2.17349126250000    1.48961291220000    0.69068120360000
C         1.89631911750000    0.14559467460000    0.22386058150000
C         2.89506036250000   -0.84668699620000    0.03512826520000
C         2.39900909030000   -2.04607502490000   -0.34820637790000
S         0.68764701670000   -2.02381506030000   -0.50173085580000
C         0.62579126300000   -0.34711145390000   -0.02285817370000
C        -0.62579023530000    0.34907710150000   -0.02202868890000
S        -0.69061127960000    2.02514193470000   -0.50271380200000
C        -2.40178322820000    2.04533561810000   -0.34675785150000
C        -2.89570654340000    0.84565161770000    0.03850482270000
C        -1.89531490330000   -0.14492446120000    0.22690041440000
C        -2.17048086230000   -1.48899925000000    0.69519403940000
C        -3.34452809660000   -2.10148489650000    0.59261423950000
H         3.49854838510000    3.09217927110000    0.97929661790000
H         4.20169525990000    1.63700859220000    0.12413723860000
H         1.34255317670000    2.00881621550000    1.14959648680000
H         3.94110234370000   -0.66748547680000    0.20385528420000
H         2.92960814010000   -2.95662036810000   -0.54412711800000
H        -2.93383053320000    2.95502150260000   -0.54272223440000
H        -3.94118385360000    0.66500488120000    0.20928328020000
H        -1.34117175800000   -2.00342870050000    1.16245933330000
H        -4.19273516580000   -1.64538998990000    0.11105033750000
H        -3.49204674730000   -3.09587269440000    0.97638584260000
$end

$rem
BASIS = 6-31G*
GUI = 2
METHOD = B3LYP
PRINT_ORBITALS false
MOLDEN_FORMAT false
--------------------------------------------------------------

             Standard Nuclear Orientation (Angstroms)
    I     Atom           X                Y                Z
 ----------------------------------------------------------------
    1      C      -3.4368196194     1.9532186603    -0.5797540811
    2      C      -2.2347694432     1.3960153267    -0.6737637853
    3      C      -1.9007457099     0.0649723175    -0.2069837864
    4      C      -2.8564328918    -0.9688389648    -0.0182429088
    5      C      -2.3098733884    -2.1460836791     0.3650475146
    6      S      -0.6009961315    -2.0511582124     0.5185176905
    7      C      -0.6104289143    -0.3733298038     0.0396826274
    8      C       0.6104529144     0.3753906193     0.0388294876
    9      S       0.6040415543     2.0526854433     0.5195521089
   10      C       2.3128064053     2.1455452996     0.3635418138
   11      C       2.8572270706     0.9679315876    -0.0217650182
   12      C       1.8998060894    -0.0642373557    -0.2101519551
   13      C       2.2317969794    -1.3954012835    -0.6784861397
   14      C       3.4308030228    -1.9574695759    -0.5759584190
   15      H      -3.6267082795     2.9408609289    -0.9622988985
   16      H      -4.2673849357     1.4571187317    -0.1071513611
   17      H      -1.4266492076     1.9500538442    -1.1326934268
   18      H      -3.9091479187    -0.8342253736    -0.1869321828
   19      H      -2.8013123075    -3.0783485171     0.5609637484
   20      H       2.8057417144     3.0770042544     0.5595106361
   21      H       3.9094281131     0.8318576487    -0.1925812365
   22      H       1.4250709142    -1.9445804719    -1.1457370140
   23      H       4.2588881928    -1.4657699268    -0.0944109198
   24      H       3.6204118592    -2.9446857021    -0.9597582334
 ----------------------------------------------------------------

    9   -1259.6088930098      4.01e-06  Convergence criterion met
 Total energy in the final basis set =    -1259.6088930098

                    Orbital Energies (a.u.)
 --------------------------------------------------------------

 Alpha MOs
 -- Occupied --
-88.9080 -88.9079 -10.2253 -10.2249 -10.2128 -10.2128 -10.1981 -10.1981
-10.1906 -10.1905 -10.1905 -10.1905 -10.1796 -10.1796  -7.9695  -7.9694
 -5.9335  -5.9335  -5.9297  -5.9296  -5.9265  -5.9264  -0.9023  -0.8783
 -0.7976  -0.7899  -0.7683  -0.7227  -0.7177  -0.6992  -0.6114  -0.6053
 -0.5870  -0.5614  -0.5384  -0.5132  -0.5077  -0.4736  -0.4509  -0.4473
 -0.4222  -0.4219  -0.4038  -0.4021  -0.3966  -0.3742  -0.3717  -0.3708
 -0.3544  -0.3414  -0.3386  -0.3004  -0.2955  -0.2690  -0.2387  -0.2292
 -0.1975

          Ground-State Mulliken Net Atomic Charges

     Atom                 Charge (a.u.)
  ----------------------------------------
      1 C                    -0.352296
      2 C                    -0.117035
      3 C                     0.148077
      4 C                    -0.127487
      5 C                    -0.349098
      6 S                     0.272491
      7 C                    -0.231356
      8 C                    -0.230634
      9 S                     0.272385
     10 C                    -0.349113
     11 C                    -0.127301
     12 C                     0.147454
     13 C                    -0.117429
     14 C                    -0.352005
     15 H                     0.144811
     16 H                     0.141317
     17 H                     0.154756
     18 H                     0.143004
     19 H                     0.172549
     20 H                     0.172577
     21 H                     0.143052
     22 H                     0.155053
     23 H                     0.141408
     24 H                     0.144821
  ----------------------------------------
  Sum of atomic charges =     0.000000

                    Cartesian Multipole Moments
 -----------------------------------------------------------------
    Charge (ESU x 10^10)
                 0.0000
    Dipole Moment (Debye)
         X       0.0036      Y      -0.0033      Z      -0.2480
       Tot       0.2481
    Quadrupole Moments (Debye-Ang)
        XX     -83.3239     XY       3.9800     YY     -87.5211
        XZ       0.0076     YZ       0.0035     ZZ     -99.8213

 Total job time:  42.07s(wall), 41.94s(cpu)
        *  Thank you very much for using Q-Chem.  Have a nice day.  *
