 Q-Chem 5.2, Q-Chem, Inc., Pleasanton, CA (2019)
 Q-Chem 5.2.1 for Intel X86 EM64T Linux

User input:
--------------------------------------------------------------
$molecule
0 1
C        -3.33246603890000   -2.81286937950000    1.02808349620000
C        -2.34966031520000   -2.51282049820000    0.18345240190000
C        -1.83929770220000   -1.19097230070000   -0.05193104070000
C        -0.83245621850000   -0.83312028700000   -0.91093664160000
C        -0.53495067580000    0.54361312750000   -0.93196416680000
C         0.54840675640000    1.09448726000000   -1.80502479590000
C         1.87469502960000    1.24305705330000   -1.04571973850000
C         2.45461675060000   -0.10558255990000   -0.62799777120000
C         3.77611251390000    0.05587482620000    0.11944860140000
C         4.43305946930000   -1.27766378470000    0.47742589910000
C         3.64953324550000   -2.07295037020000    1.51529262780000
C        -1.33550945110000    1.26259084270000   -0.06820198890000
C        -1.44608318850000    2.66323809410000    0.24651209170000
C        -0.63856175490000    3.66384698100000   -0.09907142030000
S        -2.45800533830000    0.21096830850000    0.75896836500000
H        -3.67441997020000   -3.82344835910000    1.16356721620000
H        -3.82328678980000   -2.04993283450000    1.60972659520000
H        -1.86596274990000   -3.29103969830000   -0.39402465670000
H        -0.31562253320000   -1.55067837460000   -1.52540396420000
H         0.24183421410000    2.06140444650000   -2.20757829890000
H         0.69969049320000    0.41437990280000   -2.64664601920000
H         1.71673005610000    1.85224884260000   -0.15336318350000
H         2.59183929680000    1.76230815650000   -1.68665019070000
H         2.61774120890000   -0.72118405840000   -1.51651912530000
H         1.73298337250000   -0.61819625080000    0.00928694800000
H         3.60572786470000    0.62968333640000    1.03355438040000
H         4.46594332110000    0.62929146760000   -0.50567874710000
H         5.43356569120000   -1.07834618170000    0.86907857770000
H         4.54783934900000   -1.87731685550000   -0.42869578930000
H         3.49488967080000   -1.47751208720000    2.41258338970000
H         4.19465898470000   -2.97294709980000    1.79125007800000
H         2.67822884120000   -2.37138440760000    1.12954923620000
H        -2.31196019930000    2.89285394910000    0.85720010760000
H         0.25661142200000    3.53600910200000   -0.67761978330000
H        -0.86219943990000    4.67120948070000    0.20832243480000
$end

$rem
BASIS = 6-31G*
GUI = 2
METHOD = B3LYP
PRINT_ORBITALS false
MOLDEN_FORMAT false
--------------------------------------------------------------

             Standard Nuclear Orientation (Angstroms)
    I     Atom           X                Y                Z
 ----------------------------------------------------------------
    1      C      -3.3387233205    -3.0891877005     0.1607455357
    2      C      -2.3450745999    -2.5521750053    -0.5418337782
    3      C      -1.8876175193    -1.1960824156    -0.4197521388
    4      C      -0.8721246050    -0.5986855454    -1.1208723707
    5      C      -0.6362118145     0.7492032739    -0.7863765029
    6      C       0.4474490086     1.5396068182    -1.4499290294
    7      C       1.7419574986     1.5407518690    -0.6241541234
    8      C       2.3688199212     0.1521597588    -0.5320394908
    9      C       3.6583261535     0.1685709248     0.2852731607
   10      C       4.3632445528    -1.1876904505     0.3264727601
   11      C       3.5849176059    -2.2450787106     1.1008748998
   12      C      -1.4942053133     1.1998188182     0.1958155327
   13      C      -1.6770831409     2.4721475096     0.8445216512
   14      C      -0.9051252284     3.5556928671     0.7921058765
   15      S      -2.5930709360    -0.0649600136     0.6887116836
   16      H      -3.6389447269    -4.1130828917     0.0263433481
   17      H      -3.8808044132    -2.5142985328     0.8935049845
   18      H      -1.8095472773    -3.1431483047    -1.2746565791
   19      H      -0.3051046983    -1.1205204662    -1.8730382426
   20      H       0.1102042712     2.5648898652    -1.6112534005
   21      H       0.6547042070     1.0977819537    -2.4274744972
   22      H       1.5296667078     1.9010238210     0.3845601726
   23      H       2.4542848220     2.2293094537    -1.0858766479
   24      H       2.5864333350    -0.2150888582    -1.5384280072
   25      H       1.6518233620    -0.5292242781    -0.0723754067
   26      H       3.4345588960     0.4887191476     1.3057190633
   27      H       4.3404670504     0.9045964377    -0.1487863169
   28      H       5.3413856256    -1.0570644767     0.7958435349
   29      H       4.5324055317    -1.5368349524    -0.6949465565
   30      H       3.3764101752    -1.8992294634     2.1110753972
   31      H       4.1612211129    -3.1653676782     1.1660759968
   32      H       2.6402040161    -2.4720307528     0.6137382779
   33      H      -2.5706151640     2.5103445608     1.4573412009
   34      H       0.0121112393     3.6089661027     0.2369167440
   35      H      -1.1830242890     4.4453074591     1.3312181023
 ----------------------------------------------------------------

    9    -943.6840946632      3.05e-06  Convergence criterion met
 Total energy in the final basis set =     -943.6840946632

                    Orbital Energies (a.u.)
 --------------------------------------------------------------

 Alpha MOs
 -- Occupied --
-88.8989 -10.2157 -10.2149 -10.1980 -10.1972 -10.1922 -10.1864 -10.1856
-10.1810 -10.1804 -10.1784 -10.1729 -10.1717 -10.1714 -10.1653  -7.9610
 -5.9250  -5.9215  -5.9178  -0.8894  -0.8153  -0.8027  -0.7818  -0.7683
 -0.7360  -0.7128  -0.6879  -0.6438  -0.6224  -0.5932  -0.5872  -0.5642
 -0.5339  -0.5146  -0.4947  -0.4743  -0.4582  -0.4515  -0.4451  -0.4292
 -0.4256  -0.4163  -0.4122  -0.3992  -0.3852  -0.3770  -0.3723  -0.3641
 -0.3589  -0.3494  -0.3399  -0.3364  -0.3254  -0.3226  -0.3199  -0.3136
 -0.3040  -0.2689  -0.2445  -0.1971

          Ground-State Mulliken Net Atomic Charges

     Atom                 Charge (a.u.)
  ----------------------------------------
      1 C                    -0.374247
      2 C                    -0.055065
      3 C                    -0.136959
      4 C                    -0.178703
      5 C                     0.180289
      6 C                    -0.358894
      7 C                    -0.255704
      8 C                    -0.263970
      9 C                    -0.249015
     10 C                    -0.249541
     11 C                    -0.444549
     12 C                    -0.192478
     13 C                    -0.089339
     14 C                    -0.355564
     15 S                     0.230953
     16 H                     0.146424
     17 H                     0.155818
     18 H                     0.137035
     19 H                     0.134562
     20 H                     0.149621
     21 H                     0.140870
     22 H                     0.147092
     23 H                     0.129399
     24 H                     0.121250
     25 H                     0.152823
     26 H                     0.129273
     27 H                     0.125207
     28 H                     0.129180
     29 H                     0.127731
     30 H                     0.142919
     31 H                     0.141203
     32 H                     0.148659
     33 H                     0.136523
     34 H                     0.152810
     35 H                     0.144388
  ----------------------------------------
  Sum of atomic charges =     0.000000

                    Cartesian Multipole Moments
 -----------------------------------------------------------------
    Charge (ESU x 10^10)
                -0.0000
    Dipole Moment (Debye)
         X       0.8257      Y       0.0037      Z      -0.5848
       Tot       1.0118
    Quadrupole Moments (Debye-Ang)
        XX    -100.8128     XY       1.8549     YY     -94.4738
        XZ      -3.2011     YZ       2.7770     ZZ     -99.2053

 Total job time:  59.26s(wall), 57.98s(cpu)
        *  Thank you very much for using Q-Chem.  Have a nice day.  *
