 Q-Chem 5.2, Q-Chem, Inc., Pleasanton, CA (2019)
 Q-Chem 5.2.1 for Intel X86 EM64T Linux

User input:
--------------------------------------------------------------
$molecule
0 1
C        -3.08591849160000   -1.98795996190000   -0.87588240640000
C        -1.94302885460000   -2.08544655820000   -0.20826228630000
C        -0.98102595750000   -0.99675688820000   -0.03899290270000
C         0.37913365360000   -1.30105010950000   -0.03204792120000
C         1.35320800520000   -0.31473638960000    0.03216690760000
C         2.77752094690000   -0.75690745810000    0.17252596340000
O         3.47661664550000   -0.47049911180000    1.09960142000000
O         3.21377896080000   -1.57816578640000   -0.80578299990000
C         0.98566165270000    1.03813604280000    0.06689304220000
C         1.95683498470000    2.12651042380000    0.04441059050000
C         3.11449458740000    2.10714589100000   -0.60143738140000
C        -0.37403313330000    1.34005305520000    0.09698541870000
C        -1.34849484140000    0.35378728940000    0.06515255490000
C        -2.76683919350000    0.81519811000000    0.20005176870000
O        -3.22642144290000    1.71889745030000   -0.43785638340000
O        -3.49041373600000    0.19784185550000    1.15304728200000
H        -3.73907800610000   -2.83460923770000   -0.99699592210000
H        -3.40650387370000   -1.06818638040000   -1.33661505370000
H        -1.63116990560000   -3.04156682400000    0.19414593450000
H         0.67663751360000   -2.34134955900000   -0.06330092060000
H         2.54430922200000   -1.73083996190000   -1.48636862220000
H         1.64519428120000    3.02399291590000    0.56213702210000
H         3.45016031070000    1.25704055370000   -1.17131309300000
H         3.77509843740000    2.95623431500000   -0.58993891750000
H        -0.69076561990000    2.37136699180000    0.14718854260000
H        -3.00872773430000   -0.52547773710000    1.57562689160000
$end

$rem
BASIS = 6-31G*
GUI = 2
METHOD = B3LYP
PRINT_ORBITALS false
MOLDEN_FORMAT false
--------------------------------------------------------------

             Standard Nuclear Orientation (Angstroms)
    I     Atom           X                Y                Z
 ----------------------------------------------------------------
    1      C       3.1897938851     1.8464762334    -0.7682102419
    2      C       2.0637088853     1.9636878868    -0.0756707231
    3      C       1.0383137485     0.9260390819     0.0301435811
    4      C      -0.3001761524     1.3112103835     0.0827232219
    5      C      -1.3326076855     0.3839737286     0.0914671345
    6      C      -2.7248844974     0.9004231157     0.2882629264
    7      O      -3.4285615073     0.5892968860     1.2038351922
    8      O      -3.1217923031     1.8168374171    -0.6197699729
    9      C      -1.0491959227    -0.9876169872     0.0209212262
   10      C      -2.0861575526    -2.0102072164    -0.0642943577
   11      C      -3.2484965070    -1.8726837967    -0.6869706844
   12      C       0.2894474671    -1.3731348835     0.0054560655
   13      C       1.3226736431    -0.4483652829     0.0289925832
   14      C       2.7112954426    -1.0039672886     0.1053755249
   15      O       3.1058566654    -1.8842891211    -0.6046738147
   16      O       3.4837758465    -0.5040003948     1.0883284447
   17      H       3.8925758859     2.6584342518    -0.8383705368
   18      H       3.4468894219     0.9455065782    -1.3003648868
   19      H       1.8168344263     2.9046209317     0.4008293812
   20      H      -0.5330121711     2.3671455470     0.1326888114
   21      H      -2.4528408296     1.9784116746    -1.2988087123
   22      H      -1.8241874980    -2.9608340465     0.3810321855
   23      H      -3.5380414347    -0.9638956058    -1.1873471906
   24      H      -3.9602504677    -2.6785068691    -0.7261662012
   25      H       0.5422709851    -2.4226982982    -0.0252874682
   26      H       3.0532435435     0.2140476914     1.5708582839
 ----------------------------------------------------------------

    9    -764.1502956108      7.95e-06  Convergence criterion met
 Total energy in the final basis set =     -764.1502956108

                    Orbital Energies (a.u.)
 --------------------------------------------------------------

 Alpha MOs
 -- Occupied --
-19.2069 -19.1996 -19.1422 -19.1420 -10.3297 -10.3286 -10.2322 -10.2292
-10.2279 -10.2274 -10.2248 -10.2180 -10.2178 -10.2082 -10.2046 -10.1959
 -1.1147  -1.1113  -1.0322  -1.0302  -0.9031  -0.8389  -0.7984  -0.7929
 -0.7446  -0.6939  -0.6495  -0.6385  -0.6286  -0.6094  -0.5994  -0.5559
 -0.5337  -0.5216  -0.4849  -0.4803  -0.4638  -0.4588  -0.4541  -0.4488
 -0.4473  -0.4335  -0.4262  -0.4160  -0.4129  -0.3870  -0.3806  -0.3794
 -0.3617  -0.3377  -0.3289  -0.3204  -0.2983  -0.2867  -0.2834  -0.2682
 -0.2413

          Ground-State Mulliken Net Atomic Charges

     Atom                 Charge (a.u.)
  ----------------------------------------
      1 C                    -0.326868
      2 C                    -0.182833
      3 C                     0.134330
      4 C                    -0.253459
      5 C                    -0.008711
      6 C                     0.518213
      7 O                    -0.413696
      8 O                    -0.565677
      9 C                     0.144533
     10 C                    -0.113319
     11 C                    -0.328539
     12 C                    -0.232202
     13 C                     0.008798
     14 C                     0.511651
     15 O                    -0.437214
     16 O                    -0.554992
     17 H                     0.161105
     18 H                     0.183166
     19 H                     0.146487
     20 H                     0.148293
     21 H                     0.415270
     22 H                     0.146165
     23 H                     0.155451
     24 H                     0.158163
     25 H                     0.168563
     26 H                     0.417323
  ----------------------------------------
  Sum of atomic charges =     0.000000

                    Cartesian Multipole Moments
 -----------------------------------------------------------------
    Charge (ESU x 10^10)
                 0.0000
    Dipole Moment (Debye)
         X       0.6154      Y       2.7443      Z      -1.0646
       Tot       3.0073
    Quadrupole Moments (Debye-Ang)
        XX    -111.3980     XY      17.1262     YY     -84.5907
        XZ      11.1365     YZ      -3.6712     ZZ     -90.6519

 Total job time:  48.37s(wall), 48.23s(cpu)
        *  Thank you very much for using Q-Chem.  Have a nice day.  *
