 Q-Chem 5.2, Q-Chem, Inc., Pleasanton, CA (2019)
 Q-Chem 5.2.1 for Intel X86 EM64T Linux

User input:
--------------------------------------------------------------
$molecule
0 1
F         1.93529283290000    3.78227402550000   -0.40218414190000
C         2.98570605130000    2.95828770810000   -0.57665833450000
F         3.16724612600000    2.87154260840000   -1.90861674570000
F         4.05542878180000    3.59742384500000   -0.08931127920000
C         2.75546984750000    1.61337246430000    0.04951676860000
C         1.65241719590000    0.88476026060000   -0.37465787700000
C         1.38047151090000   -0.35509781890000    0.19164934490000
N         0.26027514130000   -1.10775119980000   -0.19250360780000
C         0.55666582440000   -2.44148245070000   -0.54717247480000
C         1.34748267960000   -3.21909794830000    0.29471684400000
S         2.00822323960000   -2.49799240660000    1.77755967460000
C         1.64949670550000   -4.53260953450000   -0.02673469920000
C         1.17140402140000   -5.07630792170000   -1.20478743030000
C         0.42908948810000   -4.29470312870000   -2.07587708450000
C         0.13451702530000   -2.98140236170000   -1.75813947280000
C        -1.03826107970000   -0.61746603140000   -0.13636815540000
C        -1.30661971830000    0.68530402550000    0.29646682810000
C        -2.59678858360000    1.16270081180000    0.36669809550000
C        -3.68504679230000    0.35874229280000    0.02200481180000
C        -5.06542231520000    0.80278445280000    0.05581992190000
C        -5.54036611440000    1.99818932750000    0.37598299040000
F        -4.86019865580000    3.07831903830000    0.74501016660000
F        -6.84173885690000    2.28994299280000    0.36876741970000
C        -3.41691107660000   -0.95909787810000   -0.35477880460000
C        -2.13007768240000   -1.44220212280000   -0.42677256060000
C         2.28167030630000   -0.87959786440000    1.12381448060000
C         3.38457458320000   -0.14722113830000    1.53622384600000
C         3.61697869420000    1.11186723800000    1.01598677770000
H         1.00310112050000    1.28206037110000   -1.13993495550000
H         2.25188441090000   -5.11621560980000    0.65168042670000
H         1.39456182030000   -6.10263035830000   -1.45072969230000
H         0.08198690010000   -4.70632412730000   -3.01102353080000
H        -0.42739972190000   -2.36406021890000   -2.44246131640000
H        -0.50259790030000    1.33304435170000    0.60715755480000
H        -2.75069467130000    2.17499875950000    0.70165558180000
H        -5.81315819700000    0.07172051890000   -0.21646142260000
H        -4.23715930640000   -1.62119285560000   -0.59049709420000
H        -1.97576409890000   -2.47690115230000   -0.68804921730000
H         4.05044093710000   -0.56803883330000    2.27271096270000
H         4.46471796800000    1.69153823140000    1.34380759820000
$end

$rem
BASIS = 6-31G*
GUI = 2
METHOD = B3LYP
PRINT_ORBITALS false
MOLDEN_FORMAT false
--------------------------------------------------------------

             Standard Nuclear Orientation (Angstroms)
    I     Atom           X                Y                Z
 ----------------------------------------------------------------
    1      F      -0.7954538130    -4.2251526116    -0.5547916902
    2      C      -2.0354633663    -3.7186974144    -0.6913276398
    3      F      -2.2529027897    -3.6321992012    -2.0179145674
    4      F      -2.8790831800    -4.6486618253    -0.2289634130
    5      C      -2.1780883313    -2.3890514407    -0.0089782525
    6      C      -1.3263455519    -1.3664941655    -0.4044980148
    7      C      -1.4006361553    -0.1237061842     0.2134545094
    8      N      -0.5385155303     0.9250743431    -0.1410986501
    9      C      -1.1979652473     2.1373222535    -0.4378436015
   10      C      -2.1612340385     2.6303975801     0.4384239056
   11      S      -2.5750263770     1.6951782765     1.8908477091
   12      C      -2.8200087659     3.8203395128     0.1740183292
   13      C      -2.5281763090     4.5223154221    -0.9809935443
   14      C      -1.6108153474     4.0131264945    -1.8864821454
   15      C      -0.9593012584     2.8214713328    -1.6257593084
   16      C       0.8456982693     0.8125510930    -0.1091968012
   17      C       1.4707504499    -0.3809030379     0.2670335963
   18      C       2.8435544837    -0.4839443328     0.3135889366
   19      C       3.6613347366     0.6036317036     0.0007271270
   20      C       5.1110387463     0.5591054949     0.0120931637
   21      C       5.9031989212    -0.4694272375     0.2798084843
   22      F       5.5543678799    -1.7098264847     0.6041780771
   23      F       7.2342114921    -0.3880469350     0.2568724150
   24      C       3.0331191052     1.8093571204    -0.3188612199
   25      C       1.6619125735     1.9188734463    -0.3669425930
   26      C      -2.3985129833     0.0921433154     1.1694054686
   27      C      -3.2492376032    -0.9335127203     1.5530098418
   28      C      -3.1309721148    -2.1856408076     0.9801657576
   29      H      -0.6033320418    -1.5368631504    -1.1876542084
   30      H      -3.5508104133     4.1860590616     0.8782144990
   31      H      -3.0305210200     5.4554339021    -1.1823996934
   32      H      -1.4047594909     4.5421963407    -2.8041078921
   33      H      -0.2581151204     2.4123760139    -2.3371924800
   34      H       0.8822611978    -1.2382824238     0.5518639500
   35      H       3.2767497645    -1.4264016220     0.6047020470
   36      H       5.6229072947     1.4792999174    -0.2306687956
   37      H       3.6342878218     2.6820005162    -0.5282166774
   38      H       1.2231677300     2.8797543380    -0.5834861896
   39      H      -3.9950796626    -0.7440036605     2.3084466330
   40      H      -3.7800828973    -2.9905031128     1.2851226217
 ----------------------------------------------------------------

    9   -1759.5823949091      5.02e-06  Convergence criterion met
 Total energy in the final basis set =    -1759.5823949091

                    Orbital Energies (a.u.)
 --------------------------------------------------------------

 Alpha MOs
 -- Occupied --
-88.9057 -24.7385 -24.7280 -24.7277 -24.7202 -24.7192 -14.3834 -10.4319
-10.3486 -10.2524 -10.2455 -10.2412 -10.2395 -10.2346 -10.2221 -10.2154
-10.2140 -10.2133 -10.2074 -10.2050 -10.2033 -10.2027 -10.1979 -10.1969
-10.1907 -10.1879 -10.1862 -10.1861  -7.9667  -5.9315  -5.9281  -5.9218
 -1.3072  -1.2787  -1.2181  -1.2181  -1.2111  -0.9990  -0.8922  -0.8833
 -0.8606  -0.8312  -0.8033  -0.7850  -0.7838  -0.7617  -0.7510  -0.7371
 -0.7196  -0.6831  -0.6596  -0.6507  -0.6299  -0.6248  -0.6165  -0.6061
 -0.5953  -0.5806  -0.5803  -0.5717  -0.5637  -0.5503  -0.5342  -0.5152
 -0.5126  -0.5017  -0.5003  -0.4888  -0.4716  -0.4654  -0.4611  -0.4583
 -0.4552  -0.4544  -0.4520  -0.4453  -0.4351  -0.4282  -0.4270  -0.4225
 -0.4175  -0.4164  -0.4128  -0.4070  -0.3958  -0.3956  -0.3921  -0.3865
 -0.3831  -0.3783  -0.3702  -0.3620  -0.3520  -0.3425  -0.3391  -0.3132
 -0.2927  -0.2758  -0.2675  -0.2559  -0.2520  -0.2280  -0.1899

          Ground-State Mulliken Net Atomic Charges

     Atom                 Charge (a.u.)
  ----------------------------------------
      1 F                    -0.266366
      2 C                     0.780473
      3 F                    -0.266233
      4 F                    -0.265402
      5 C                    -0.020767
      6 C                    -0.184714
      7 C                     0.269866
      8 N                    -0.693407
      9 C                     0.262847
     10 C                    -0.104776
     11 S                     0.185214
     12 C                    -0.175867
     13 C                    -0.110760
     14 C                    -0.145820
     15 C                    -0.142987
     16 C                     0.358644
     17 C                    -0.197783
     18 C                    -0.206043
     19 C                     0.200250
     20 C                    -0.299365
     21 C                     0.536452
     22 F                    -0.237962
     23 F                    -0.252272
     24 C                    -0.206435
     25 C                    -0.196422
     26 C                    -0.091771
     27 C                    -0.182084
     28 C                    -0.146958
     29 H                     0.174635
     30 H                     0.149987
     31 H                     0.138137
     32 H                     0.139800
     33 H                     0.155451
     34 H                     0.152251
     35 H                     0.141652
     36 H                     0.155709
     37 H                     0.128110
     38 H                     0.150566
     39 H                     0.155877
     40 H                     0.158273
  ----------------------------------------
  Sum of atomic charges =     0.000000

                    Cartesian Multipole Moments
 -----------------------------------------------------------------
    Charge (ESU x 10^10)
                 0.0000
    Dipole Moment (Debye)
         X      -1.9768      Y       3.3336      Z      -0.3676
       Tot       3.8931
    Quadrupole Moments (Debye-Ang)
        XX    -163.7048     XY      -0.6595     YY    -156.3922
        XZ      -6.3528     YZ      -9.8008     ZZ    -160.3306

 Total job time:  154.79s(wall), 154.40s(cpu)
        *  Thank you very much for using Q-Chem.  Have a nice day.  *
