 Q-Chem 5.2, Q-Chem, Inc., Pleasanton, CA (2019)
 Q-Chem 5.2.1 for Intel X86 EM64T Linux

User input:
--------------------------------------------------------------
$molecule
0 1
C         3.65124244880000    0.00733194090000    0.26063760260000
C         2.52805100490000   -0.45519064760000   -0.27177179980000
C         1.20550236900000    0.14368120840000   -0.08503910510000
C         1.07009591580000    1.52425368130000    0.00203508400000
C        -0.17413376660000    2.11340500500000    0.12707733230000
C        -1.30286601120000    1.31908144070000    0.17002287210000
C        -1.21250789680000   -0.06835536440000    0.09929295530000
C        -2.42610995790000   -0.87957014100000    0.19660841330000
C        -3.60699032300000   -0.54049396190000   -0.30216189960000
C         0.05483085030000   -0.66752199910000   -0.02880402770000
N         0.17506177280000   -2.03532090260000   -0.17043110080000
H         4.60320789680000   -0.45820620410000    0.06896116770000
H         3.66195539210000    0.86149986390000    0.91683807660000
H         2.56486045070000   -1.32953220720000   -0.91093987390000
H         1.95508681960000    2.13991818850000   -0.05564949570000
H        -0.26274773350000    3.18758622240000    0.18937143030000
H        -2.27612424540000    1.77133150510000    0.28757949700000
H        -2.34045568810000   -1.81643715230000    0.73788491900000
H        -3.74667511740000    0.36450947460000   -0.86870155200000
H        -4.47593537380000   -1.16379532120000   -0.17616080390000
H        -0.63257854070000   -2.58448906580000    0.07155933430000
H         1.05351210870000   -2.43958194350000    0.10691410930000
$end

$rem
BASIS = 6-31G*
GUI = 2
METHOD = B3LYP
PRINT_ORBITALS false
MOLDEN_FORMAT false
--------------------------------------------------------------

             Standard Nuclear Orientation (Angstroms)
    I     Atom           X                Y                Z
 ----------------------------------------------------------------
    1      C       3.6444390786     0.2568036729    -0.2140083953
    2      C       2.4801411655     0.6579657964     0.2783585985
    3      C       1.2115393774    -0.0526346764     0.1099900599
    4      C       1.1856942907    -1.4422775326     0.0989474787
    5      C      -0.0065910152    -2.1336358073    -0.0074566284
    6      C      -1.1930231476    -1.4343051110    -0.1081844635
    7      C      -1.2123551901    -0.0422791930    -0.1143742686
    8      C      -2.4838284294     0.6641844049    -0.2713285980
    9      C      -3.6425403082     0.2610617850     0.2317636917
   10      C       0.0021349404     0.6610372703    -0.0052107730
   11      N       0.0129696271     2.0397715906     0.0608333509
   12      H       4.5539602760     0.8057552204    -0.0375793036
   13      H       3.7323523361    -0.6286734031    -0.8210654575
   14      H       2.4382997492     1.5663309804     0.8678379565
   15      H       2.1149815172    -1.9821738597     0.2014969919
   16      H      -0.0100998540    -3.2132548479    -0.0104049536
   17      H      -2.1260017303    -1.9676295994    -0.2116118555
   18      H      -2.4628206432     1.5736796188    -0.8632862276
   19      H      -3.7203006059    -0.6195852353     0.8465192539
   20      H      -4.5553267761     0.8060649419     0.0607701685
   21      H      -0.8310516746     2.5094335898    -0.2210772148
   22      H       0.8615554429     2.4961278046    -0.2284130261
 ----------------------------------------------------------------

    8    -442.3938001926      8.78e-06  Convergence criterion met
 Total energy in the final basis set =     -442.3938001926

                    Orbital Energies (a.u.)
 --------------------------------------------------------------

 Alpha MOs
 -- Occupied --
-14.3420 -10.2245 -10.1899 -10.1876 -10.1829 -10.1821 -10.1776 -10.1776
-10.1770 -10.1764 -10.1690  -0.9270  -0.8410  -0.8022  -0.7687  -0.7174
 -0.7117  -0.6352  -0.6038  -0.5778  -0.5358  -0.5255  -0.5209  -0.4695
 -0.4610  -0.4449  -0.4306  -0.4205  -0.4139  -0.3852  -0.3778  -0.3629
 -0.3394  -0.3327  -0.3082  -0.2986  -0.2708  -0.2178  -0.1933

          Ground-State Mulliken Net Atomic Charges

     Atom                 Charge (a.u.)
  ----------------------------------------
      1 C                    -0.337621
      2 C                    -0.152997
      3 C                     0.138471
      4 C                    -0.198319
      5 C                    -0.134697
      6 C                    -0.195343
      7 C                     0.145882
      8 C                    -0.141174
      9 C                    -0.338389
     10 C                     0.176099
     11 N                    -0.808907
     12 H                     0.139631
     13 H                     0.144168
     14 H                     0.135439
     15 H                     0.125796
     16 H                     0.119073
     17 H                     0.125568
     18 H                     0.118501
     19 H                     0.145540
     20 H                     0.138799
     21 H                     0.326476
     22 H                     0.328002
  ----------------------------------------
  Sum of atomic charges =     0.000000

                    Cartesian Multipole Moments
 -----------------------------------------------------------------
    Charge (ESU x 10^10)
                 0.0000
    Dipole Moment (Debye)
         X       0.0253      Y       1.3727      Z      -0.8503
       Tot       1.6149
    Quadrupole Moments (Debye-Ang)
        XX     -59.6215     XY       0.0693     YY     -56.8094
        XZ      -0.1265     YZ      -2.4577     ZZ     -69.0892

 Total job time:  23.10s(wall), 22.15s(cpu)
        *  Thank you very much for using Q-Chem.  Have a nice day.  *
