 Q-Chem 5.2, Q-Chem, Inc., Pleasanton, CA (2019)
 Q-Chem 5.2.1 for Intel X86 EM64T Linux

User input:
--------------------------------------------------------------
$molecule
0 1
C        -1.99339213180000    3.85702382160000   -0.22067259280000
C        -2.87786758110000    2.61888523230000   -0.06818026680000
C        -3.82387782590000    2.48478971820000   -1.26073107300000
O        -1.93229179930000    1.52212890110000   -0.05056919410000
C        -2.35506679390000    0.25986845580000    0.08230330570000
N        -1.28122867220000   -0.60461606540000    0.09485295950000
C         0.04728964800000   -0.14294226800000    0.20425447510000
C         0.41777466420000    0.77318006440000    1.18448915690000
C         1.72502320350000    1.20078068320000    1.27143634960000
C         2.70439370630000    0.72252436090000    0.39673018530000
C         4.06125831640000    1.21813306140000    0.55037769630000
C         5.13904648730000    0.90811873960000   -0.15577574620000
F         5.23551909470000    0.06526039110000   -1.17720005090000
F         6.33968565450000    1.43412497780000    0.08265790060000
C         2.32570109380000   -0.20869621200000   -0.57310283280000
C         1.01714158900000   -0.63349312440000   -0.66658571020000
C        -1.48709449290000   -2.00142701070000   -0.01174970500000
C        -2.43992065000000   -2.52649652350000   -0.87613944820000
C        -2.61370081450000   -3.89635953640000   -0.95769236810000
C        -1.83582879300000   -4.75040557460000   -0.19495032860000
C        -0.88043705170000   -4.22721749380000    0.66030025200000
C        -0.70694312590000   -2.85971904290000    0.75758771640000
O        -3.50141916590000   -0.10312572980000    0.16657523460000
C        -3.65533744540000    2.67214157690000    1.24645350050000
H        -1.41611513450000    3.79031689850000   -1.13893331310000
H        -1.30121800950000    3.92669548100000    0.61431261910000
H        -2.60799649600000    4.75161015460000   -0.24961934620000
H        -3.25179645880000    2.39717988920000   -2.18211630280000
H        -4.46011656750000    3.36308410160000   -1.32289402660000
H        -4.44884689200000    1.60327077760000   -1.14785545110000
H        -0.32110020680000    1.14375063690000    1.87747368460000
H         2.00034125370000    1.91147505130000    2.03691035340000
H         4.22524415060000    1.93578549090000    1.34147026410000
H         3.05170974760000   -0.60251826300000   -1.26486567390000
H         0.73475219890000   -1.35329571690000   -1.42035752430000
H        -3.04657614940000   -1.86558718230000   -1.47342923390000
H        -3.35810042270000   -4.29770167450000   -1.62896747360000
H        -1.97306964690000   -5.81884313280000   -0.26566248490000
H        -0.27078938500000   -4.88574061720000    1.26099613150000
H         0.03297858530000   -2.44994039360000    1.42952634720000
H        -4.30323783420000    3.54403909390000    1.25174729180000
H        -2.96794025340000    2.74035992220000    2.08730667880000
H        -4.26421123530000    1.77944453600000    1.36041328360000
$end

$rem
BASIS = 6-31G*
GUI = 2
METHOD = B3LYP
PRINT_ORBITALS false
MOLDEN_FORMAT false
--------------------------------------------------------------

             Standard Nuclear Orientation (Angstroms)
    I     Atom           X                Y                Z
 ----------------------------------------------------------------
    1      C      -1.3755229591    -4.0229018230     0.4087260761
    2      C      -2.4103397888    -2.9175754892     0.1943765462
    3      C      -3.3756903385    -2.8493377254     1.3769738316
    4      O      -1.6132939279    -1.7103978117     0.1255426178
    5      C      -2.1935094627    -0.5208407866    -0.0693913356
    6      N      -1.2394873430     0.4730073071    -0.1216125460
    7      C       0.1381806378     0.1813777998    -0.2056094445
    8      C       0.6314198907    -0.7253557540    -1.1393913293
    9      C       1.9834320415    -0.9848955850    -1.2026611257
   10      C       2.8859313850    -0.3432786292    -0.3501183512
   11      C       4.2964376163    -0.6669941375    -0.4765997852
   12      C       5.3195494090    -0.1874376293     0.2159727528
   13      F       5.2984481086     0.7087721195     1.1954560815
   14      F       6.5797416644    -0.5654219350     0.0059467533
   15      C       2.3827013315     0.5768561534     0.5725231979
   16      C       1.0296943622     0.8337631829     0.6424543206
   17      C      -1.6238776512     1.8352156085    -0.0834246459
   18      C      -2.6434383404     2.2741323366     0.7523943620
   19      C      -2.9923399557     3.6125759059     0.7669399214
   20      C      -2.3242013471     4.5220790704    -0.0347144489
   21      C      -1.3024144977     4.0857937307    -0.8614909843
   22      C      -0.9539685755     2.7489019304    -0.8918679471
   23      O      -3.3762339167    -0.3127968350    -0.1736548361
   24      C      -3.1635004170    -3.1333112426    -1.1177837805
   25      H      -0.8192988538    -3.8385812535     1.3238992662
   26      H      -0.6731645757    -4.0428564429    -0.4204023665
   27      H      -1.8704009637    -4.9867012417     0.4797724494
   28      H      -2.8273286616    -2.6448309104     2.2942413761
   29      H      -3.8943928468    -3.7981918416     1.4803593580
   30      H      -4.1077015726    -2.0619721496     1.2200729535
   31      H      -0.0479308987    -1.2206634890    -1.8151419729
   32      H       2.3541210981    -1.6901035048    -1.9321187169
   33      H       4.5578277829    -1.3946440448    -1.2315465432
   34      H       3.0463177166     1.0934815005     1.2458966054
   35      H       0.6509212931     1.5465229153     1.3597659778
   36      H      -3.1651958003     1.5700402585     1.3797783265
   37      H      -3.7877034827     3.9465016206     1.4163296600
   38      H      -2.5980751917     5.5661323583    -0.0162773625
   39      H      -0.7773548414     4.7877439924    -1.4921546893
   40      H      -0.1619569654     2.4060117156    -1.5415202493
   41      H      -3.6940240694    -4.0805600600    -1.0821109554
   42      H      -2.4660167156    -3.1527218945    -1.9528540904
   43      H      -3.8809762907    -2.3328546652    -1.2762759551
 ----------------------------------------------------------------

    9   -1140.3437071265      5.94e-06  Convergence criterion met
 Total energy in the final basis set =    -1140.3437071265

                    Orbital Energies (a.u.)
 --------------------------------------------------------------

 Alpha MOs
 -- Occupied --
-24.7455 -24.7348 -19.1838 -19.1204 -14.3768 -10.3573 -10.3347 -10.2552
-10.2307 -10.2270 -10.2073 -10.2044 -10.1943 -10.1926 -10.1919 -10.1911
-10.1861 -10.1853 -10.1849 -10.1830 -10.1825 -10.1773 -10.1716 -10.1703
 -1.2863  -1.2253  -1.1117  -1.0198  -0.9676  -0.8692  -0.8518  -0.8136
 -0.8056  -0.7584  -0.7519  -0.7475  -0.7317  -0.6972  -0.6937  -0.6644
 -0.6465  -0.6216  -0.6201  -0.6061  -0.5894  -0.5730  -0.5566  -0.5414
 -0.5282  -0.5199  -0.5090  -0.4898  -0.4877  -0.4761  -0.4650  -0.4569
 -0.4546  -0.4503  -0.4418  -0.4405  -0.4383  -0.4346  -0.4309  -0.4230
 -0.4204  -0.4158  -0.4114  -0.3965  -0.3906  -0.3831  -0.3794  -0.3725
 -0.3685  -0.3587  -0.3578  -0.3541  -0.3481  -0.3463  -0.3337  -0.3171
 -0.2938  -0.2864  -0.2704  -0.2599  -0.2476  -0.2389  -0.2023

          Ground-State Mulliken Net Atomic Charges

     Atom                 Charge (a.u.)
  ----------------------------------------
      1 C                    -0.449540
      2 C                     0.308597
      3 C                    -0.468488
      4 O                    -0.509534
      5 C                     0.792817
      6 N                    -0.647268
      7 C                     0.285192
      8 C                    -0.131819
      9 C                    -0.215675
     10 C                     0.205105
     11 C                    -0.300161
     12 C                     0.542339
     13 F                    -0.234705
     14 F                    -0.248511
     15 C                    -0.208775
     16 C                    -0.148062
     17 C                     0.293733
     18 C                    -0.133722
     19 C                    -0.145577
     20 C                    -0.122011
     21 C                    -0.140245
     22 C                    -0.154649
     23 O                    -0.510162
     24 C                    -0.470358
     25 H                     0.157095
     26 H                     0.151387
     27 H                     0.147221
     28 H                     0.146841
     29 H                     0.143079
     30 H                     0.188284
     31 H                     0.138745
     32 H                     0.129784
     33 H                     0.159077
     34 H                     0.142193
     35 H                     0.148863
     36 H                     0.148446
     37 H                     0.131257
     38 H                     0.126524
     39 H                     0.130385
     40 H                     0.144042
     41 H                     0.144637
     42 H                     0.142451
     43 H                     0.191167
  ----------------------------------------
  Sum of atomic charges =     0.000000

                    Cartesian Multipole Moments
 -----------------------------------------------------------------
    Charge (ESU x 10^10)
                 0.0000
    Dipole Moment (Debye)
         X       0.5999      Y      -1.1802      Z      -0.1829
       Tot       1.3365
    Quadrupole Moments (Debye-Ang)
        XX    -148.5202     XY       1.5605     YY    -123.5196
        XZ      -6.6922     YZ       2.5545     ZZ    -133.7674

 Total job time:  133.60s(wall), 133.23s(cpu)
        *  Thank you very much for using Q-Chem.  Have a nice day.  *
