 Q-Chem 5.2, Q-Chem, Inc., Pleasanton, CA (2019)
 Q-Chem 5.2.1 for Intel X86 EM64T Linux

User input:
--------------------------------------------------------------
$molecule
0 1
C        -5.84870562200000    0.79178183480000   -0.22845322720000
C        -5.00372999040000   -0.16581241060000    0.13588467700000
C        -3.54910303940000   -0.11447290770000    0.08290752350000
C        -2.83796742460000    1.00677485570000   -0.34873729020000
C        -1.45976153020000    1.00537250360000   -0.37719686770000
C        -0.73333865390000   -0.11812761310000    0.01684472370000
C         0.73334917860000   -0.11801511240000   -0.01848852600000
C         1.45945731240000    1.00585253550000    0.37508492530000
C         2.83767678260000    1.00731732960000    0.34747559380000
C         3.54914549270000   -0.11424545730000   -0.08279932740000
C         5.00382193380000   -0.16566560570000   -0.13434080240000
C         5.84848471210000    0.79151237730000    0.23184095420000
C         2.81783344050000   -1.23549617760000   -0.48108558110000
C         1.43947668130000   -1.24109243890000   -0.44636140020000
C        -1.43914350660000   -1.24103248350000    0.44570452590000
C        -2.81747708130000   -1.23549993010000    0.48125088640000
H        -6.91395386580000    0.65640410440000   -0.15158634970000
H        -5.52341717630000    1.74184786360000   -0.61618541340000
H        -5.40471248550000   -1.09862895550000    0.51495838280000
H        -3.36880077510000    1.89080932300000   -0.66692132330000
H        -0.93288174380000    1.87970780920000   -0.73162811060000
H         0.93230223260000    1.88042516660000    0.72850843690000
H         3.36826263940000    1.89164209060000    0.66525662090000
H         5.40514238710000   -1.09814386670000   -0.51382329660000
H         5.52280680350000    1.74129948960000    0.61998863810000
H         6.91382115410000    0.65604316860000    0.15623757750000
H         3.34504689730000   -2.11513741370000   -0.82412192010000
H         0.89879751630000   -2.11659964180000   -0.77597640220000
H        -0.89821632560000   -2.11627151440000    0.77562139420000
H        -3.34441993260000   -2.11492382700000    0.82526330360000
$end

$rem
BASIS = 6-31G*
GUI = 2
METHOD = B3LYP
PRINT_ORBITALS false
MOLDEN_FORMAT false
--------------------------------------------------------------

             Standard Nuclear Orientation (Angstroms)
    I     Atom           X                Y                Z
 ----------------------------------------------------------------
    1      C       5.8488993305    -0.7841918347    -0.2234868597
    2      C       5.0036108954     0.1734028562     0.1401235562
    3      C       3.5490297691     0.1220591117     0.0859067988
    4      C       2.8382653315    -0.9991937132    -0.3463358086
    5      C       1.4600841946    -0.9977952199    -0.3759702420
    6      C       0.7333227125     0.1257058750     0.0174436889
    7      C      -0.7333344669     0.1255892306    -0.0191398298
    8      C      -1.4597748711    -0.9982774416     0.3738227839
    9      C      -2.8379703010    -0.9997460883     0.3450386057
   10      C      -3.5490749260     0.1218116463    -0.0858509145
   11      C      -5.0037070377     0.1732275634    -0.1386327931
   12      C      -5.8486791335    -0.7839499595     0.2268358457
   13      C      -2.8174265809     1.2430613700    -0.4835218735
   14      C      -1.4390999381     1.2486615366    -0.4476227619
   15      C       1.4387587597     1.2486157723     0.4468967293
   16      C       2.8170615466     1.2430871302     0.4836180825
   17      H       6.9140813042    -0.6488107177    -0.1457129332
   18      H       5.5239440362    -1.7342615800    -0.6114891999
   19      H       5.4042676382     1.1062232543     0.5195320718
   20      H       3.3693720613    -1.8832291180    -0.6640607036
   21      H       0.9335090452    -1.8721345305    -0.7308440560
   22      H      -0.9329189496    -1.8728460743     0.7277019842
   23      H      -3.3688245225    -1.8840699140     0.6623737317
   24      H      -5.4047063173     1.1057019673    -0.5184641250
   25      H      -5.5233297120    -1.7337333512     0.6152680100
   26      H      -6.9139510979    -0.6484841284     0.1503233492
   27      H      -3.3443497473     2.1226986840    -0.8270139922
   28      H      -0.8981423008     2.1241677438    -0.7767831896
   29      H       0.8975482246     2.1238558003     0.7763459156
   30      H       3.3437086289     2.1225149555     0.8280730908
 ----------------------------------------------------------------

    8    -618.1034597079      6.47e-06  Convergence criterion met
 Total energy in the final basis set =     -618.1034597079

                    Orbital Energies (a.u.)
 --------------------------------------------------------------

 Alpha MOs
 -- Occupied --
-10.1948 -10.1945 -10.1938 -10.1938 -10.1896 -10.1896 -10.1870 -10.1870
-10.1869 -10.1869 -10.1864 -10.1864 -10.1859 -10.1859 -10.1791 -10.1791
 -0.8749  -0.8569  -0.8083  -0.7824  -0.7534  -0.7457  -0.7437  -0.7068
 -0.6417  -0.6213  -0.6087  -0.5895  -0.5639  -0.5569  -0.5258  -0.4905
 -0.4848  -0.4644  -0.4577  -0.4431  -0.4429  -0.4246  -0.4221  -0.4151
 -0.4145  -0.3907  -0.3809  -0.3705  -0.3669  -0.3505  -0.3449  -0.3374
 -0.3319  -0.3130  -0.2893  -0.2537  -0.2534  -0.2367  -0.2054

          Ground-State Mulliken Net Atomic Charges

     Atom                 Charge (a.u.)
  ----------------------------------------
      1 C                    -0.353182
      2 C                    -0.114341
      3 C                     0.183583
      4 C                    -0.189607
      5 C                    -0.173665
      6 C                     0.089870
      7 C                     0.089871
      8 C                    -0.173638
      9 C                    -0.189600
     10 C                     0.183571
     11 C                    -0.114346
     12 C                    -0.353175
     13 C                    -0.204715
     14 C                    -0.171474
     15 C                    -0.171448
     16 C                    -0.204718
     17 H                     0.144245
     18 H                     0.142418
     19 H                     0.126442
     20 H                     0.127357
     21 H                     0.132531
     22 H                     0.132529
     23 H                     0.127357
     24 H                     0.126446
     25 H                     0.142417
     26 H                     0.144244
     27 H                     0.128164
     28 H                     0.132349
     29 H                     0.132351
     30 H                     0.128164
  ----------------------------------------
  Sum of atomic charges =     0.000000

                    Cartesian Multipole Moments
 -----------------------------------------------------------------
    Charge (ESU x 10^10)
                 0.0000
    Dipole Moment (Debye)
         X      -0.0001      Y       0.0703      Z       0.0004
       Tot       0.0703
    Quadrupole Moments (Debye-Ang)
        XX     -85.0399     XY      -0.0028     YY     -84.5489
        XZ       0.4581     YZ       0.0019     ZZ     -97.8843

 Total job time:  42.14s(wall), 42.01s(cpu)
        *  Thank you very much for using Q-Chem.  Have a nice day.  *
