 Q-Chem 5.2, Q-Chem, Inc., Pleasanton, CA (2019)
 Q-Chem 5.2.1 for Intel X86 EM64T Linux

User input:
--------------------------------------------------------------
$molecule
0 1
C         5.87721816240000    0.43946260800000   -0.17056332380000
C         5.00164520980000   -0.49212142430000    0.18767583340000
C         3.54902749450000   -0.40535188690000    0.10981469640000
C         2.78056301690000   -1.43101666630000    0.66512529030000
C         1.40300267610000   -1.37919726030000    0.61396593380000
C         0.73766220580000   -0.31212556240000    0.02182735770000
C        -0.73769432420000   -0.31223261510000   -0.02110731000000
C        -1.40287641890000   -1.37933533540000   -0.61337865100000
C        -2.78043022320000   -1.43143214240000   -0.66440359620000
C        -3.54901139330000   -0.40586067140000   -0.10909992680000
C        -5.00164498740000   -0.49252439550000   -0.18714777690000
C        -5.87675991190000    0.44201309710000    0.16439288710000
C        -2.88829630540000    0.65172173410000    0.50712144800000
C        -1.49927481770000    0.71654726360000    0.56293076250000
N        -0.88616942440000    1.80442304440000    1.14979624620000
C         1.49910262750000    0.71691689410000   -0.56193904860000
N         0.88581138890000    1.80484404820000   -1.14851142840000
C         2.88812682350000    0.65227062800000   -0.50616419810000
H         6.93731070650000    0.28021889930000   -0.07007952450000
H         5.58239781490000    1.39438316030000   -0.57076629160000
H         5.37133903250000   -1.42536373060000    0.59601358780000
H         3.26990347750000   -2.26847499150000    1.14071191830000
H         0.81639231490000   -2.17473440700000    1.05158180730000
H        -0.81613729340000   -2.17477212220000   -1.05100304140000
H        -3.26968279820000   -2.26895584690000   -1.13996153330000
H        -5.37159862960000   -1.42799551580000   -0.59015942610000
H        -5.58138602670000    1.39933746000000    0.55846690640000
H        -6.93691531720000    0.28284897840000    0.06442682070000
H        -3.45362263350000    1.44634633190000    0.97116481660000
H        -1.44112995030000    2.32845029180000    1.80594660580000
H         0.08037592030000    1.68679349410000    1.40630220790000
H        -0.08063983950000    1.68705307120000   -1.40527009880000
H         1.44081007510000    2.32937757630000   -1.80422109620000
H         3.45327063900000    1.44731923790000   -0.96969214980000
$end

$rem
BASIS = 6-31G*
GUI = 2
METHOD = B3LYP
PRINT_ORBITALS false
MOLDEN_FORMAT false
--------------------------------------------------------------

             Standard Nuclear Orientation (Angstroms)
    I     Atom           X                Y                Z
 ----------------------------------------------------------------
    1      C       5.8781530332    -0.4297574686     0.1331123051
    2      C       5.0003813154     0.5019767372    -0.2193082951
    3      C       3.5482817253     0.4152730623    -0.1322520517
    4      C       2.7763712450     1.4411353420    -0.6823943443
    5      C       1.3991601875     1.3893845799    -0.6225062405
    6      C       0.7375258124     0.3221913065    -0.0264470874
    7      C      -0.7375284658     0.3223751081     0.0258513860
    8      C      -1.3988719724     1.3893561240     0.6226235823
    9      C      -2.7760709363     1.4415216071     0.6824055397
   10      C      -3.5482245999     0.4161477215     0.1317122159
   11      C      -5.0003281845     0.5028772514     0.2190025075
   12      C      -5.8777144834    -0.4315118495    -0.1272309184
   13      C      -2.8914994423    -0.6413061795    -0.4889785840
   14      C      -1.5028641794    -0.7061997673    -0.5536210708
   15      N      -0.8935632935    -1.7939521949    -1.1446626264
   16      C       1.5025927893    -0.7070559905     0.5521941076
   17      N       0.8929699800    -1.7951063219     1.1423511203
   18      C       2.8912389660    -0.6424777973     0.4876213312
   19      H       6.9375962367    -0.2705499196     0.0259451007
   20      H       5.5858199502    -1.3847694647     0.5349184395
   21      H       5.3675333934     1.4353082178    -0.6297302066
   22      H       3.2627347890     2.2786940140    -1.1608493032
   23      H       0.8098330144     2.1850762303    -1.0561731645
   24      H      -0.8093178392     2.1846383350     1.0567315401
   25      H      -3.2622434519     2.2789449021     1.1612874661
   26      H      -5.3676586059     1.4382605928     0.6246090529
   27      H      -5.5849069342    -1.3887463988    -0.5234325807
   28      H      -6.9372041910    -0.2723114385    -0.0204943126
   29      H      -3.4598088501    -1.4357702795    -0.9496406807
   30      H      -1.4527097875    -2.3177671781    -1.7974199299
   31      H       0.0713416993    -1.6763106377    -1.4072663995
   32      H      -0.0718247717    -1.6773274355     1.4052711212
   33      H       1.4520871525    -2.3198519554     1.7943819016
   34      H       3.4592645293    -1.4376866915     0.9473361998
 ----------------------------------------------------------------

    9    -728.8064352467      1.87e-06  Convergence criterion met
 Total energy in the final basis set =     -728.8064352467

                    Orbital Energies (a.u.)
 --------------------------------------------------------------

 Alpha MOs
 -- Occupied --
-14.3333 -14.3333 -10.2225 -10.2225 -10.1874 -10.1873 -10.1847 -10.1847
-10.1829 -10.1826 -10.1788 -10.1788 -10.1747 -10.1747 -10.1739 -10.1739
-10.1703 -10.1703  -0.9286  -0.9116  -0.8476  -0.8396  -0.7987  -0.7739
 -0.7391  -0.7261  -0.7258  -0.6992  -0.6404  -0.6105  -0.6076  -0.5833
 -0.5647  -0.5596  -0.5219  -0.5130  -0.5123  -0.4898  -0.4780  -0.4589
 -0.4579  -0.4486  -0.4339  -0.4218  -0.4188  -0.4097  -0.4061  -0.3958
 -0.3808  -0.3765  -0.3626  -0.3467  -0.3459  -0.3406  -0.3285  -0.3260
 -0.3163  -0.2831  -0.2765  -0.2278  -0.2187  -0.1963  -0.1912

          Ground-State Mulliken Net Atomic Charges

     Atom                 Charge (a.u.)
  ----------------------------------------
      1 C                    -0.352171
      2 C                    -0.118878
      3 C                     0.186838
      4 C                    -0.216074
      5 C                    -0.176538
      6 C                     0.012189
      7 C                     0.012189
      8 C                    -0.176548
      9 C                    -0.216012
     10 C                     0.186730
     11 C                    -0.118932
     12 C                    -0.352097
     13 C                    -0.252821
     14 C                     0.287829
     15 N                    -0.797627
     16 C                     0.287854
     17 N                    -0.797641
     18 C                    -0.252845
     19 H                     0.141383
     20 H                     0.139058
     21 H                     0.125600
     22 H                     0.118099
     23 H                     0.130956
     24 H                     0.130957
     25 H                     0.118089
     26 H                     0.125634
     27 H                     0.139071
     28 H                     0.141372
     29 H                     0.110598
     30 H                     0.321417
     31 H                     0.340163
     32 H                     0.340166
     33 H                     0.321419
     34 H                     0.110576
  ----------------------------------------
  Sum of atomic charges =     0.000000

                    Cartesian Multipole Moments
 -----------------------------------------------------------------
    Charge (ESU x 10^10)
                 0.0000
    Dipole Moment (Debye)
         X      -0.0007      Y      -1.2964      Z      -0.0012
       Tot       1.2964
    Quadrupole Moments (Debye-Ang)
        XX    -101.6774     XY      -0.0031     YY     -97.6685
        XZ       1.9606     YZ      -0.0100     ZZ    -102.3206

 Total job time:  68.81s(wall), 68.44s(cpu)
        *  Thank you very much for using Q-Chem.  Have a nice day.  *
