 Q-Chem 5.4, Q-Chem, Inc., Pleasanton, CA (2021)
 Q-Chem 5.4.2 for Intel X86 EM64T Linux

User input:
--------------------------------------------------------------
$molecule
0 1
C            0.52995685020000       -2.56405930060000       -0.16826940480000
C            1.08814883540000       -1.61032091270000        0.56311029870000
C            1.10450958770000       -0.19509731600000        0.21426499910000
C            2.20201988040000        0.58569118020000        0.43370438060000
S            2.03664646850000        2.17497746460000       -0.19039597960000
C            0.45879540550000        1.81465452810000       -0.75018957280000
C            0.07184114200000        0.53730847270000       -0.46064513560000
C           -1.27201308080000        0.06685798560000       -0.77020710270000
C           -2.03044565020000       -0.65832274190000        0.03422123890000
F           -1.71785532960000       -1.09966051780000        1.24511051080000
F           -3.26633902500000       -1.04992844600000       -0.27100175600000
H            0.57791525110000       -3.59747067130000        0.12742757730000
H            0.01217238840000       -2.35287455210000       -1.08913471000000
H            1.63477512170000       -1.86558268330000        1.46135847870000
H            3.12112190390000        0.29732873530000        0.90414880650000
H           -0.11952602870000        2.57577269100000       -1.23559210070000
H           -1.71480503690000        0.38948475790000       -1.70044831990000
$end

$rem
BASIS = 6-31G*
GUI = 2
METHOD = B3LYP
PRINT_ORBITALS false
MOLDEN_FORMAT false
$end
--------------------------------------------------------------

             Standard Nuclear Orientation (Angstroms)
    I     Atom           X                Y                Z
 ----------------------------------------------------------------
    1      C       1.0920072221     2.1998566951    -0.8528228527
    2      C       0.1161339004     1.9876457344     0.0182392827
    3      C      -0.7402512861     0.8082356319     0.0386051470
    4      C      -2.0755835784     0.8952397289     0.3062450481
    5      S      -2.8991441908    -0.5991646284     0.1296549759
    6      C      -1.4360661337    -1.3802160835    -0.2971666331
    7      C      -0.3627499250    -0.5357327068    -0.2924052381
    8      C       0.9866456624    -1.0281737040    -0.5368021641
    9      C       2.0619675345    -0.6785163351     0.1484967504
   10      F       2.1224495033     0.1784126972     1.1588230021
   11      F       3.2780211476    -1.1687815519    -0.0856018730
   12      H       1.6707043898     3.1067764384    -0.8360317328
   13      H       1.3456336338     1.4839019112    -1.6168745839
   14      H      -0.1361430165     2.7477906047     0.7458001356
   15      H      -2.6299997575     1.7747384474     0.5676338227
   16      H      -1.4347022533    -2.4335051438    -0.4970477191
   17      H       1.1139578222    -1.7897822773    -1.2912857410
 ----------------------------------------------------------------

    9    -906.2615153339      6.72e-06  Convergence criterion met
 Total energy in the final basis set =     -906.2615153339

                    Orbital Energies (a.u.)
 --------------------------------------------------------------

 Alpha MOs
 -- Occupied --
-88.9119 -24.7351 -24.7318 -10.3532 -10.2132 -10.2120 -10.2071 -10.2018
-10.1998 -10.1924 -10.1781  -7.9737  -5.9375  -5.9339  -5.9310  -1.2797
 -1.2196  -0.8949  -0.8086  -0.7908  -0.7257  -0.7181  -0.6341  -0.5991
 -0.5816  -0.5691  -0.5483  -0.5160  -0.5047  -0.4879  -0.4533  -0.4361
 -0.4350  -0.4208  -0.4162  -0.4025  -0.3904  -0.3847  -0.3679  -0.3458
 -0.2937  -0.2854  -0.2252  -0.2214

          Ground-State Mulliken Net Atomic Charges

     Atom                 Charge (a.u.)
  ----------------------------------------
      1 C                    -0.340422
      2 C                    -0.117182
      3 C                     0.142358
      4 C                    -0.407162
      5 S                     0.271147
      6 C                    -0.399813
      7 C                     0.151678
      8 C                    -0.338562
      9 C                     0.576362
     10 F                    -0.231480
     11 F                    -0.248315
     12 H                     0.143336
     13 H                     0.149293
     14 H                     0.134902
     15 H                     0.173969
     16 H                     0.173463
     17 H                     0.166427
  ----------------------------------------
  Sum of atomic charges =     0.000000

                    Cartesian Multipole Moments
 -----------------------------------------------------------------
    Charge (ESU x 10^10)
                -0.0000
    Dipole Moment (Debye)
         X      -0.6025      Y      -0.0515      Z      -0.4588
       Tot       0.7590
    Quadrupole Moments (Debye-Ang)
        XX     -70.3411     XY      -0.0691     YY     -62.0183
        XZ      -2.4437     YZ       2.8341     ZZ     -69.3971

 Total job time:  36.78s(wall), 33.10s(cpu)
        *  Thank you very much for using Q-Chem.  Have a nice day.  *
