 Q-Chem 5.2, Q-Chem, Inc., Pleasanton, CA (2019)
 Q-Chem 5.2.1 for Intel X86 EM64T Linux

User input:
--------------------------------------------------------------
$molecule
0 1
C        -3.56909823370000    0.50550923590000    0.00606750320000
C        -2.33699691930000    0.99888476130000   -0.00121554180000
C        -1.11439293000000    0.22060474950000   -0.00137815880000
C        -0.99361790340000   -1.14826175410000   -0.00244772620000
S         0.64903831520000   -1.62330703550000   -0.00229128950000
C         1.09002189700000    0.08993620300000   -0.00076576720000
C         2.47476679790000    0.47751963170000    0.00050310950000
C         2.87280982610000    1.74637264610000    0.00458152630000
N         0.07347869640000    0.87728388150000   -0.00064664650000
H        -4.42991836370000    1.15102800760000    0.00573392150000
H        -3.76670993320000   -0.55293310490000    0.01252690210000
H        -2.16888753860000    2.06669404030000   -0.00703077140000
H        -1.76773923440000   -1.88773973890000   -0.00370127050000
H         3.18506948260000   -0.33788977740000   -0.00178647340000
H         2.15357244450000    2.54659943690000    0.00686426870000
H         3.91542743380000    2.01155189560000    0.00556783690000
$end

$rem
BASIS = 6-31G*
GUI = 2
METHOD = B3LYP
PRINT_ORBITALS false
MOLDEN_FORMAT false
--------------------------------------------------------------

             Standard Nuclear Orientation (Angstroms)
    I     Atom           X                Y                Z
 ----------------------------------------------------------------
    1      C       3.5195298006     0.6562178181    -0.0044350549
    2      C       2.2632406465     1.0842642111     0.0033075104
    3      C       1.0831504224     0.2429166330     0.0020293184
    4      C       1.0343550762    -1.1304009772     0.0010236562
    5      S      -0.5811171903    -1.6909679391    -0.0002149086
    6      C      -1.1113734959    -0.0032183689     0.0007229892
    7      C      -2.5145447040     0.3111866583    -0.0002791446
    8      C      -2.9786055984     1.5574150446    -0.0025492675
    9      N      -0.1375360106     0.8363740032     0.0020116501
   10      H       4.3452992263     1.3460065653    -0.0029410892
   11      H       3.7723983593    -0.3903889931    -0.0124332669
   12      H       2.0393424655     2.1417737643     0.0106822383
   13      H       1.8462047050    -1.8282499385     0.0013459284
   14      H      -3.1810915389    -0.5403661240     0.0006299172
   15      H      -2.3023398605     2.3942748528    -0.0034721828
   16      H      -4.0336991235     1.7675327620    -0.0033746009
 ----------------------------------------------------------------

    9    -723.8493770944      8.59e-06  Convergence criterion met
 Total energy in the final basis set =     -723.8493770944

                    Orbital Energies (a.u.)
 --------------------------------------------------------------

 Alpha MOs
 -- Occupied --
-88.9157 -14.3295 -10.2523 -10.2244 -10.2172 -10.2025 -10.1919 -10.1901
-10.1833  -7.9777  -5.9412  -5.9379  -5.9352  -0.9744  -0.8151  -0.8034
 -0.7790  -0.7132  -0.6303  -0.6176  -0.5592  -0.5309  -0.4940  -0.4713
 -0.4614  -0.4246  -0.4173  -0.3973  -0.3931  -0.3744  -0.3498  -0.3247
 -0.2984  -0.2735  -0.2641  -0.2132

          Ground-State Mulliken Net Atomic Charges

     Atom                 Charge (a.u.)
  ----------------------------------------
      1 C                    -0.346917
      2 C                    -0.092441
      3 C                     0.330127
      4 C                    -0.402390
      5 S                     0.234848
      6 C                     0.100827
      7 C                    -0.093089
      8 C                    -0.322742
      9 N                    -0.482949
     10 H                     0.148423
     11 H                     0.137950
     12 H                     0.145797
     13 H                     0.176759
     14 H                     0.141643
     15 H                     0.173907
     16 H                     0.150246
  ----------------------------------------
  Sum of atomic charges =     0.000000

                    Cartesian Multipole Moments
 -----------------------------------------------------------------
    Charge (ESU x 10^10)
                 0.0000
    Dipole Moment (Debye)
         X      -0.0246      Y      -0.7840      Z      -0.0011
       Tot       0.7844
    Quadrupole Moments (Debye-Ang)
        XX     -49.9390     XY      -1.5183     YY     -56.6882
        XZ      -0.0018     YZ       0.0100     ZZ     -63.0869

 Total job time:  14.79s(wall), 14.73s(cpu)
        *  Thank you very much for using Q-Chem.  Have a nice day.  *
