 Q-Chem 5.2, Q-Chem, Inc., Pleasanton, CA (2019)
 Q-Chem 5.2.1 for Intel X86 EM64T Linux

User input:
--------------------------------------------------------------
$molecule
0 1
C         4.00203843630000    0.69559312640000   -0.30196234660000
C         3.34780995150000   -0.41070645620000    0.03116643940000
C         1.90104385350000   -0.57191571630000    0.09064951380000
C         1.35723068280000   -1.84515031610000    0.28845191890000
C        -0.00622970710000   -2.04704925540000    0.32500582810000
C        -0.90368468420000   -0.98882542070000    0.17905483790000
C        -2.33768293200000   -1.26291656700000    0.10550087810000
C        -3.16089254490000   -0.71802865630000   -0.77833664340000
C        -0.35328318750000    0.29036520280000    0.03774135860000
N        -1.18383973090000    1.47045339180000    0.03430582300000
O        -2.10641165670000    1.51432341290000    0.81763825750000
O        -0.86931994910000    2.36528320160000   -0.72176475750000
C         1.01487195590000    0.49615286760000   -0.02432245060000
H         5.07764102210000    0.72095723610000   -0.32516585540000
H         3.50360404100000    1.61076872300000   -0.57093883240000
H         3.90933108370000   -1.30413105090000    0.27396172870000
H         2.02163716910000   -2.68935210900000    0.40305650350000
H        -0.39799901010000   -3.04563218830000    0.44965162730000
H        -2.69675380670000   -2.01997289220000    0.78976973820000
H        -2.83106412880000    0.00440396630000   -1.50739744920000
H        -4.20268431040000   -0.98305442830000   -0.81353387690000
H         1.37427273930000    1.50716761710000   -0.13734812290000
$end

$rem
BASIS = 6-31G*
GUI = 2
METHOD = B3LYP
PRINT_ORBITALS false
MOLDEN_FORMAT false
--------------------------------------------------------------

             Standard Nuclear Orientation (Angstroms)
    I     Atom           X                Y                Z
 ----------------------------------------------------------------
    1      C       3.9155083418    -1.0004441917     0.2371884194
    2      C       3.3342441109     0.1715968223     0.0106046155
    3      C       1.9008692305     0.4278938330    -0.0384575757
    4      C       1.4387899821     1.7457722020    -0.1137189532
    5      C       0.0908469116     2.0350650420    -0.1356902099
    6      C      -0.8717105693     1.0258457186    -0.0966483741
    7      C      -2.2866756000     1.3806097862    -0.0022898316
    8      C      -3.1506725727     0.8053106213     0.8212912321
    9      C      -0.4028671456    -0.2928976409    -0.0781617861
   10      N      -1.3047863439    -1.4135683593    -0.1925427691
   11      O      -2.2205368094    -1.3237386860    -0.9799467027
   12      O      -1.0536608178    -2.3952212347     0.4742251117
   13      C       0.9492695152    -0.5888138096    -0.0311612823
   14      H       4.9872040555    -1.0950972102     0.2619223416
   15      H       3.3588194763    -1.9043991488     0.4140909672
   16      H       3.9522930645     1.0474711869    -0.1421128662
   17      H       2.1552152987     2.5539244338    -0.1432417069
   18      H      -0.2371882036     3.0635423081    -0.1642403809
   19      H      -2.5914905540     2.2212454476    -0.6111490715
   20      H      -2.8733437935    -0.0034361731     1.4779819566
   21      H      -4.1743827443     1.1302704618     0.8780906538
   22      H       1.2443455976    -1.6264937256    -0.0155073069
 ----------------------------------------------------------------

   10    -591.5326142035      3.36e-06  Convergence criterion met
 Total energy in the final basis set =     -591.5326142035

                    Orbital Energies (a.u.)
 --------------------------------------------------------------

 Alpha MOs
 -- Occupied --
-19.1768 -19.1762 -14.5692 -10.2496 -10.2254 -10.2178 -10.2154 -10.2115
-10.2104 -10.2051 -10.2020 -10.1944 -10.1913  -1.2394  -1.0609  -0.9009
 -0.8333  -0.8083  -0.7828  -0.7382  -0.7057  -0.6529  -0.6153  -0.5838
 -0.5763  -0.5498  -0.5300  -0.5134  -0.5071  -0.4877  -0.4767  -0.4558
 -0.4462  -0.4380  -0.4091  -0.3966  -0.3810  -0.3727  -0.3604  -0.3345
 -0.3118  -0.3048  -0.2968  -0.2762  -0.2682  -0.2325

          Ground-State Mulliken Net Atomic Charges

     Atom                 Charge (a.u.)
  ----------------------------------------
      1 C                    -0.345150
      2 C                    -0.117892
      3 C                     0.169872
      4 C                    -0.177069
      5 C                    -0.195239
      6 C                     0.158128
      7 C                    -0.119546
      8 C                    -0.318647
      9 C                     0.207668
     10 N                     0.351875
     11 O                    -0.377928
     12 O                    -0.388003
     13 C                    -0.199788
     14 H                     0.152830
     15 H                     0.154145
     16 H                     0.134318
     17 H                     0.141195
     18 H                     0.144216
     19 H                     0.144919
     20 H                     0.156212
     21 H                     0.154203
     22 H                     0.169682
  ----------------------------------------
  Sum of atomic charges =     0.000000

                    Cartesian Multipole Moments
 -----------------------------------------------------------------
    Charge (ESU x 10^10)
                 0.0000
    Dipole Moment (Debye)
         X       2.3578      Y       3.2828      Z       0.3562
       Tot       4.0574
    Quadrupole Moments (Debye-Ang)
        XX     -68.0068     XY      -6.0116     YY     -73.3461
        XZ      -2.9564     YZ      -1.2360     ZZ     -77.7803

 Total job time:  34.52s(wall), 34.40s(cpu)
        *  Thank you very much for using Q-Chem.  Have a nice day.  *
