 Q-Chem 5.4, Q-Chem, Inc., Pleasanton, CA (2021)
 Q-Chem 5.4.2 for Intel X86 EM64T Linux

User input:
--------------------------------------------------------------
$molecule
0 1
C           -3.33185848510000       -2.01087605050000        0.87296838150000
C           -3.14067191490000       -0.91609132970000        0.14954908670000
C           -1.89438382160000       -0.15070756180000        0.07863825960000
C           -1.98612262110000        1.22908600650000       -0.09658976690000
C           -0.84643974940000        2.01099367910000       -0.11678085600000
Cl          -0.99154614240000        3.72072359830000       -0.31864894320000
C            0.40831111480000        1.44871429910000        0.02645982560000
C            0.53190834230000        0.06774434420000        0.17017979160000
C            1.81515832180000       -0.60084036190000        0.31717943230000
C            3.02943473920000       -0.08883263330000        0.19162415800000
F            3.36580668570000        1.15987932750000       -0.10644821030000
F            4.13897661440000       -0.80717283140000        0.34698294700000
C           -0.62471743940000       -0.73382048860000        0.19155498400000
O           -0.47399484920000       -2.09597422880000        0.32125222490000
C           -0.61689210220000       -2.82039707350000       -0.89575802770000
C           -0.51576074950000       -4.30234507360000       -0.57956785760000
H           -4.28898476060000       -2.50399474180000        0.89855670530000
H           -2.54573314830000       -2.44376834210000        1.46660942240000
H           -3.96468241710000       -0.48617730200000       -0.40704764860000
H           -2.95688245070000        1.68978371050000       -0.19611646630000
H            1.27855056720000        2.08264276030000        0.02113314640000
H            1.76757099470000       -1.65269296850000        0.55955160130000
H            0.17848723810000       -2.51961331850000       -1.59400937430000
H           -1.58610694460000       -2.59046502390000       -1.35762337460000
H            0.43485579250000       -4.51790595880000       -0.09936688620000
H           -0.59053688130000       -4.87932619410000       -1.49666716050000
H           -1.31781858620000       -4.59472900360000        0.09222086220000
$end

$rem
BASIS = 6-31G*
GUI = 2
METHOD = B3LYP
PRINT_ORBITALS false
MOLDEN_FORMAT false
$end
--------------------------------------------------------------

             Standard Nuclear Orientation (Angstroms)
    I     Atom           X                Y                Z
 ----------------------------------------------------------------
    1      C       3.2657588623     1.8778551021    -0.8869040886
    2      C       2.2156892003     2.2623649525    -0.1741999105
    3      C       0.9337611688     1.5585138085    -0.1012015667
    4      C      -0.2210944807     2.3227100526     0.0577439872
    5      C      -1.4643875944     1.7190232302     0.0789286616
    6      Cl     -2.8797654048     2.6930734664     0.2603529640
    7      C      -1.5953741657     0.3486216252    -0.0472366452
    8      C      -0.4554240059    -0.4434358915    -0.1743910517
    9      C      -0.5080870359    -1.8912143914    -0.3028781483
   10      C      -1.5542630991    -2.6918050802    -0.1726727229
   11      F      -2.8075699126    -2.3629048061     0.1142443819
   12      F      -1.4777347182    -4.0133168522    -0.3104486633
   13      C       0.8133391716     0.1652424186    -0.1966843958
   14      O       1.9234440961    -0.6409053881    -0.3097960916
   15      C       2.6170347800    -0.8590554808     0.9139949600
   16      C       3.8568109391    -1.6837533941     0.6153277937
   17      H       4.1678034729     2.4655868454    -0.9151606245
   18      H       3.2565369361     0.9728673238    -1.4688925283
   19      H       2.2464384452     3.1983259687     0.3704566463
   20      H      -0.1420125119     3.3954950383     0.1437730625
   21      H      -2.5767264267    -0.0942394508    -0.0415639956
   22      H       0.4310049735    -2.3730528233    -0.5338340995
   23      H       1.9584359723    -1.3925585184     1.6156189510
   24      H       2.8939264383     0.1030025356     1.3649285910
   25      H       3.5767265971    -2.6227800795     0.1457397575
   26      H       4.3902187731    -1.8921104666     1.5381675564
   27      H       4.5112656766    -1.1399489845    -0.0599876738
 ----------------------------------------------------------------

    9   -1198.9447876126      5.02e-06  Convergence criterion met
 Total energy in the final basis set =    -1198.9447876126

                    Orbital Energies (a.u.)
 --------------------------------------------------------------

 Alpha MOs
 -- Occupied --
******** -24.7478 -24.7372 -19.1729 -10.3607 -10.2520 -10.2496 -10.2430
-10.2168 -10.2098 -10.2038 -10.2019 -10.2011 -10.1990 -10.1856 -10.1841
 -9.4653  -7.2292  -7.2196  -7.2191  -1.2892  -1.2279  -1.0652  -0.9003
 -0.8521  -0.8231  -0.7812  -0.7745  -0.7409  -0.7177  -0.6559  -0.6432
 -0.6241  -0.6065  -0.5785  -0.5679  -0.5328  -0.5226  -0.5217  -0.5108
 -0.4769  -0.4703  -0.4641  -0.4464  -0.4441  -0.4437  -0.4396  -0.4279
 -0.4148  -0.4020  -0.3985  -0.3918  -0.3841  -0.3770  -0.3604  -0.3498
 -0.3375  -0.3199  -0.3124  -0.2809  -0.2753  -0.2321  -0.2252

          Ground-State Mulliken Net Atomic Charges

     Atom                 Charge (a.u.)
  ----------------------------------------
      1 C                    -0.332630
      2 C                    -0.146521
      3 C                     0.164407
      4 C                    -0.214624
      5 C                    -0.057233
      6 Cl                   -0.015407
      7 C                    -0.220195
      8 C                     0.165425
      9 C                    -0.298043
     10 C                     0.549773
     11 F                    -0.233261
     12 F                    -0.245724
     13 C                     0.211660
     14 O                    -0.539332
     15 C                    -0.032053
     16 C                    -0.460016
     17 H                     0.143156
     18 H                     0.170576
     19 H                     0.137155
     20 H                     0.151094
     21 H                     0.161246
     22 H                     0.181683
     23 H                     0.136123
     24 H                     0.146931
     25 H                     0.160675
     26 H                     0.152647
     27 H                     0.162489
  ----------------------------------------
  Sum of atomic charges =     0.000000

                    Cartesian Multipole Moments
 -----------------------------------------------------------------
    Charge (ESU x 10^10)
                 0.0000
    Dipole Moment (Debye)
         X       2.7260      Y      -0.2022      Z       0.8695
       Tot       2.8685
    Quadrupole Moments (Debye-Ang)
        XX     -94.9889     XY       2.3681     YY     -98.0097
        XZ       2.4922     YZ      -0.2686     ZZ     -98.5451

 Total job time:  71.45s(wall), 66.95s(cpu)
        *  Thank you very much for using Q-Chem.  Have a nice day.  *
