 Q-Chem 5.2, Q-Chem, Inc., Pleasanton, CA (2019)
 Q-Chem 5.2.1 for Intel X86 EM64T Linux

User input:
--------------------------------------------------------------
$molecule
0 1
C         3.05066137150000    2.46189898190000    0.05528928300000
C         2.72692332700000    1.17992044140000   -0.06072688040000
C         1.38214182170000    0.61796441100000   -0.03542475390000
C         0.22647730480000    1.38867174040000   -0.04309407070000
C        -1.06553688550000    0.86233145680000   -0.01993649040000
C        -2.19424921860000    1.78502570370000   -0.03012791630000
C        -3.48847653340000    1.49408227180000    0.03643447770000
C        -1.17403857080000   -0.53093607030000    0.00831492260000
F        -2.36448687430000   -1.15390201390000    0.02709876890000
C        -0.03747884340000   -1.32034749070000    0.01096655820000
F        -0.14651179010000   -2.67506700640000    0.03475716930000
C         1.24491905330000   -0.78138736340000   -0.01134252660000
O         2.33300987450000   -1.58300407130000   -0.00677048650000
H         4.07856808950000    2.77859024240000    0.02553732440000
H         2.32162495740000    3.24242874190000    0.18952801880000
H         3.50786390580000    0.44130053060000   -0.17534524440000
H         0.32851434940000    2.46173700760000   -0.07379795190000
H        -1.89647420770000    2.82429703500000   -0.09686868200000
H        -3.86984022220000    0.49230441410000    0.10903195200000
H        -4.22539573530000    2.27917665850000    0.02142248260000
H         2.05169621030000   -2.50874035890000    0.01032913510000
$end

$rem
BASIS = 6-31G*
GUI = 2
METHOD = B3LYP
PRINT_ORBITALS false
MOLDEN_FORMAT false
--------------------------------------------------------------

             Standard Nuclear Orientation (Angstroms)
    I     Atom           X                Y                Z
 ----------------------------------------------------------------
    1      C       3.1255369973    -2.2444803921    -0.0790143330
    2      C       2.7468950620    -0.9782664522     0.0437357922
    3      C       1.3788405038    -0.4752627308     0.0268225832
    4      C       0.2578394708    -1.2955500348     0.0365439311
    5      C      -1.0559391524    -0.8258404100     0.0213902788
    6      C      -2.1433914504    -1.7968066301     0.0328867238
    7      C      -3.4493464574    -1.5621955676    -0.0266291932
    8      C      -1.2250683130     0.5614862217    -0.0006393446
    9      F      -2.4415603880     1.1321315196    -0.0114808591
   10      C      -0.1239437443     1.3996088284    -0.0051798364
   11      F      -0.2919061143     2.7483836826    -0.0229049007
   12      C       1.1807726960     0.9168763003     0.0091168820
   13      O       2.2329348895     1.7650910535     0.0029252522
   14      H       4.1663734689    -2.5162589342    -0.0552105955
   15      H       2.4305168016    -3.0554618419    -0.2131666832
   16      H       3.4955004692    -0.2068195871     0.1578611984
   17      H       0.4065948202    -2.3632710174     0.0623722840
   18      H      -1.8003862127    -2.8223899060     0.0940057721
   19      H      -3.8742570990    -0.5776842011    -0.0933813340
   20      H      -4.1513428416    -2.3786642791    -0.0115167532
   21      H       1.9115463245     2.6777697228    -0.0090949719
 ----------------------------------------------------------------

    9    -660.7202054971      2.78e-06  Convergence criterion met
 Total energy in the final basis set =     -660.7202054971

                    Orbital Energies (a.u.)
 --------------------------------------------------------------

 Alpha MOs
 -- Occupied --
-24.7281 -24.7231 -19.1993 -10.2859 -10.2808 -10.2689 -10.2091 -10.2055
-10.2008 -10.1962 -10.1919 -10.1818 -10.1791  -1.2423  -1.2287  -1.0841
 -0.8820  -0.8104  -0.7914  -0.7395  -0.7346  -0.6549  -0.6449  -0.6033
 -0.5814  -0.5596  -0.5582  -0.5238  -0.4982  -0.4939  -0.4718  -0.4581
 -0.4571  -0.4441  -0.4310  -0.4177  -0.4148  -0.4056  -0.3910  -0.3790
 -0.3604  -0.3555  -0.3419  -0.3131  -0.2770  -0.2347  -0.2135

          Ground-State Mulliken Net Atomic Charges

     Atom                 Charge (a.u.)
  ----------------------------------------
      1 C                    -0.351939
      2 C                    -0.106605
      3 C                     0.153386
      4 C                    -0.303512
      5 C                     0.133328
      6 C                    -0.109038
      7 C                    -0.361790
      8 C                     0.244393
      9 F                    -0.276427
     10 C                     0.262906
     11 F                    -0.302717
     12 C                     0.218563
     13 O                    -0.639289
     14 H                     0.147033
     15 H                     0.141111
     16 H                     0.155720
     17 H                     0.138261
     18 H                     0.131348
     19 H                     0.160170
     20 H                     0.140961
     21 H                     0.424138
  ----------------------------------------
  Sum of atomic charges =     0.000000

                    Cartesian Multipole Moments
 -----------------------------------------------------------------
    Charge (ESU x 10^10)
                 0.0000
    Dipole Moment (Debye)
         X       0.6484      Y      -0.2964      Z       0.0177
       Tot       0.7132
    Quadrupole Moments (Debye-Ang)
        XX     -72.3183     XY       3.3304     YY     -64.8717
        XZ       0.2228     YZ       0.0777     ZZ     -75.9038

 Total job time:  28.72s(wall), 28.62s(cpu)
        *  Thank you very much for using Q-Chem.  Have a nice day.  *
