 Q-Chem 5.4, Q-Chem, Inc., Pleasanton, CA (2021)
 Q-Chem 5.4.2 for Intel X86 EM64T Linux

User input:
--------------------------------------------------------------
$molecule
0 1
C            0.86743743950000       -4.17587905120000       -0.60414929320000
C            1.35134350260000       -3.15260413320000        0.08581714800000
C            0.86439490020000       -1.77655476990000       -0.02498488990000
C           -0.47930627650000       -1.54096767410000       -0.18627663590000
C           -1.02211529790000       -0.24220426820000       -0.25506248310000
C           -2.46613642420000       -0.09192392940000       -0.40973975180000
C           -3.21910107280000        0.84830010190000        0.13901197070000
F           -2.83984666020000        1.80461420150000        0.96830426070000
F           -4.53615683760000        0.92046402350000       -0.04185024420000
C           -0.14907058340000        0.81962786320000       -0.18760572740000
F           -0.61164987870000        2.07911821580000       -0.32016869960000
C            1.24248700080000        0.64753951500000       -0.03335220390000
C            2.11589411770000        1.75376342380000        0.02574864920000
C            3.46251785500000        1.56637225260000        0.16036089100000
C            3.98567703930000        0.26822915780000        0.23130526430000
C            3.15883474470000       -0.82105926120000        0.17553630720000
C            1.76254688870000       -0.67158976210000        0.05387653440000
H            1.24674984070000       -5.17484241360000       -0.47481530080000
H            0.08946267670000       -4.05235525330000       -1.33884382730000
H            2.15404169910000       -3.31776552320000        0.79175217510000
H           -1.16194191260000       -2.37616422250000       -0.22702027760000
H           -2.97775201590000       -0.83429129740000       -1.00353419840000
H            1.69723356470000        2.74666467280000       -0.03833964570000
H            4.12898187980000        2.41432517820000        0.20691467270000
H            5.05270777590000        0.13114724180000        0.32642280040000
H            3.58295667860000       -1.81212346610000        0.21449737160000
$end

$rem
BASIS = 6-31G*
GUI = 2
METHOD = B3LYP
PRINT_ORBITALS false
MOLDEN_FORMAT false
$end
--------------------------------------------------------------

             Standard Nuclear Orientation (Angstroms)
    I     Atom           X                Y                Z
 ----------------------------------------------------------------
    1      C      -1.9679103164    -3.7262292439     0.2374047733
    2      C      -2.1190669138    -2.5471241731    -0.3492580265
    3      C      -1.2465178215    -1.3935582251    -0.1237551030
    4      C       0.1048214938    -1.5829281913     0.0345807111
    5      C       1.0081745578    -0.5155822895     0.2103233606
    6      C       2.4300296518    -0.8152087037     0.3526552063
    7      C       3.4337682400    -0.0948596183    -0.1224358224
    8      F       3.3640492078     1.0022198391    -0.8556835225
    9      F       4.7109285253    -0.4334604446     0.0411665798
   10      C       0.4906442573     0.7589827496     0.2538125754
   11      F       1.3050852505     1.8069938118     0.4909352786
   12      C      -0.8875994878     1.0222742963     0.1090272171
   13      C      -1.3923746016     2.3383867669     0.1648330263
   14      C      -2.7324578461     2.5720127482     0.0374470175
   15      C      -3.6168429199     1.4996232157    -0.1407322813
   16      C      -3.1514649153     0.2137282236    -0.1975213523
   17      C      -1.7750946636    -0.0695031168    -0.0873081655
   18      H      -2.6254966880    -4.5515725450     0.0254576624
   19      H      -1.1957968886    -3.9064653564     0.9665376261
   20      H      -2.9274436794    -2.4017520140    -1.0530626031
   21      H       0.5081309251    -2.5831248315    -0.0118187937
   22      H       2.6920483779    -1.7267440665     0.8683112323
   23      H      -0.6983613819     3.1522302578     0.3105769166
   24      H      -3.1164788897     3.5800668805     0.0789249558
   25      H      -4.6754207285     1.6945312047    -0.2291477163
   26      H      -3.8504001876    -0.5990350166    -0.3179831228
 ----------------------------------------------------------------

    9    -838.3862277731      5.16e-06  Convergence criterion met
 Total energy in the final basis set =     -838.3862277731

                    Orbital Energies (a.u.)
 --------------------------------------------------------------

 Alpha MOs
 -- Occupied --
-24.7385 -24.7335 -24.7123 -10.3575 -10.2737 -10.2116 -10.2050 -10.2043
-10.2043 -10.2012 -10.1969 -10.1951 -10.1939 -10.1936 -10.1930 -10.1926
-10.1847  -1.2837  -1.2256  -1.2210  -0.8903  -0.8459  -0.8161  -0.7886
 -0.7594  -0.7463  -0.7167  -0.6554  -0.6392  -0.6177  -0.6155  -0.5735
 -0.5680  -0.5468  -0.5412  -0.5231  -0.5154  -0.4899  -0.4785  -0.4669
 -0.4645  -0.4496  -0.4421  -0.4379  -0.4320  -0.4296  -0.4202  -0.4135
 -0.3994  -0.3886  -0.3857  -0.3711  -0.3469  -0.3401  -0.3387  -0.3047
 -0.2765  -0.2651  -0.2379  -0.2071

          Ground-State Mulliken Net Atomic Charges

     Atom                 Charge (a.u.)
  ----------------------------------------
      1 C                    -0.335392
      2 C                    -0.132328
      3 C                     0.114048
      4 C                    -0.269062
      5 C                     0.117313
      6 C                    -0.318403
      7 C                     0.567882
      8 F                    -0.228072
      9 F                    -0.247402
     10 C                     0.234458
     11 F                    -0.283816
     12 C                     0.057593
     13 C                    -0.181149
     14 C                    -0.132793
     15 C                    -0.128204
     16 C                    -0.198830
     17 C                     0.083584
     18 H                     0.144420
     19 H                     0.144574
     20 H                     0.140904
     21 H                     0.136723
     22 H                     0.168231
     23 H                     0.146530
     24 H                     0.133999
     25 H                     0.132008
     26 H                     0.133185
  ----------------------------------------
  Sum of atomic charges =     0.000000

                    Cartesian Multipole Moments
 -----------------------------------------------------------------
    Charge (ESU x 10^10)
                 0.0000
    Dipole Moment (Debye)
         X      -1.8195      Y      -1.0459      Z       0.0974
       Tot       2.1009
    Quadrupole Moments (Debye-Ang)
        XX     -90.7462     XY      -3.5386     YY     -86.0840
        XZ       2.7458     YZ      -0.5592     ZZ     -96.4286

 Total job time:  98.25s(wall), 87.22s(cpu)
        *  Thank you very much for using Q-Chem.  Have a nice day.  *
