 Q-Chem 5.2, Q-Chem, Inc., Pleasanton, CA (2019)
 Q-Chem 5.2.1 for Intel X86 EM64T Linux

User input:
--------------------------------------------------------------
$molecule
0 1
C        -3.52753839440000   -2.65573125630000   -0.01308293190000
C        -2.20474985880000   -2.53872975770000    0.00331135890000
C        -1.43738270860000   -1.30191232050000   -0.02299360900000
C        -2.02286681710000   -0.03638484160000   -0.08409780780000
C        -1.27671881050000    1.12828502610000   -0.11074426770000
C        -1.94375788360000    2.42759644720000   -0.22416438220000
C        -3.10240691690000    2.73295624990000    0.34318581620000
C         0.13520037080000    1.05792376200000   -0.06129191630000
N         0.88879722990000    2.19454854290000   -0.09032676110000
C         0.72387138080000   -0.21682261820000   -0.01545409140000
C         2.21551393020000   -0.33397163680000    0.02657290170000
F         2.75807286550000    0.28592779320000    1.10535136060000
F         2.65514504410000   -1.59532148130000    0.07383334510000
F         2.82274215940000    0.23259514190000   -1.03995590490000
C        -0.04776640150000   -1.36805857330000    0.00277627070000
H        -4.00180608700000   -3.62148302580000    0.01034098430000
H        -4.18984247200000   -1.80815609830000   -0.05130201720000
H        -1.60080121770000   -3.43684409240000    0.04199400790000
H        -3.09625338140000    0.04911762470000   -0.13784356860000
H        -1.44092231570000    3.16494432390000   -0.83823242040000
H        -3.62741136930000    2.03831771370000    0.97707306240000
H        -3.56242200910000    3.69649312030000    0.20659857360000
H         0.43562513740000    3.06370076140000    0.12776671250000
H         1.87094214980000    2.14904412460000    0.11385562800000
H         0.44259689810000   -2.32915171750000    0.03944356100000
$end

$rem
BASIS = 6-31G*
GUI = 2
METHOD = B3LYP
PRINT_ORBITALS false
MOLDEN_FORMAT false
--------------------------------------------------------------

             Standard Nuclear Orientation (Angstroms)
    I     Atom           X                Y                Z
 ----------------------------------------------------------------
    1      C       3.4654270881     2.5966157583    -0.0201730431
    2      C       2.1403815388     2.5094145656    -0.0007339670
    3      C       1.3452943155     1.2902189287    -0.0264239219
    4      C       1.9019825078     0.0118921109    -0.0901731782
    5      C       1.1297330284    -1.1356517654    -0.1161842491
    6      C       1.7670706285    -2.4495361261    -0.2324773556
    7      C       2.9198879233    -2.7814989376     0.3318021990
    8      C      -0.2801224555    -1.0335650265    -0.0632897382
    9      N      -1.0591929196    -2.1529007231    -0.0916437663
   10      C      -0.8398252342     0.2540659703    -0.0147901108
   11      C      -2.3283474957     0.4047315597     0.0309156092
   12      F      -2.8821756037    -0.2039129510     1.1103760074
   13      F      -2.7393469372     1.6756117492     0.0804686043
   14      F      -2.9507033629    -0.1469095378    -1.0347170698
   15      C      -0.0424149773     1.3876140895     0.0027307638
   16      H       3.9613784740     3.5514178486     0.0030690687
   17      H       4.1083824873     1.7343813909    -0.0608090927
   18      H       1.5569059115     3.4208606913     0.0402760178
   19      H       2.9730410292    -0.0977041780    -0.1465672577
   20      H       1.2463050574    -3.1747356293    -0.8460683886
   21      H       3.4619017242    -2.0995177217     0.9651173439
   22      H       3.3577618584    -3.7550080839     0.1931673567
   23      H      -0.6251953388    -3.0322634654     0.1245102414
   24      H      -2.0395780392    -2.0855032078     0.1149290681
   25      H      -0.5109208008     2.3594673090     0.0415160810
 ----------------------------------------------------------------

    9    -779.4357547470      4.64e-06  Convergence criterion met
 Total energy in the final basis set =     -779.4357547470

                    Orbital Energies (a.u.)
 --------------------------------------------------------------

 Alpha MOs
 -- Occupied --
-24.7253 -24.7193 -24.7173 -14.3574 -10.4283 -10.2483 -10.2040 -10.2003
-10.2000 -10.1984 -10.1940 -10.1906 -10.1893 -10.1878 -10.1745  -1.3044
 -1.2154  -1.2077  -0.9456  -0.8635  -0.8111  -0.7944  -0.7491  -0.7244
 -0.6917  -0.6464  -0.6321  -0.5998  -0.5809  -0.5777  -0.5591  -0.5452
 -0.5382  -0.5115  -0.4805  -0.4760  -0.4573  -0.4566  -0.4486  -0.4374
 -0.4213  -0.4176  -0.4114  -0.4038  -0.3955  -0.3940  -0.3918  -0.3708
 -0.3518  -0.3438  -0.3386  -0.3038  -0.2734  -0.2438  -0.1985

          Ground-State Mulliken Net Atomic Charges

     Atom                 Charge (a.u.)
  ----------------------------------------
      1 C                    -0.361870
      2 C                    -0.111873
      3 C                     0.185734
      4 C                    -0.259834
      5 C                     0.138778
      6 C                    -0.154755
      7 C                    -0.333158
      8 C                     0.257463
      9 N                    -0.833100
     10 C                    -0.029262
     11 C                     0.783099
     12 F                    -0.280009
     13 F                    -0.262442
     14 F                    -0.274113
     15 C                    -0.268993
     16 H                     0.141750
     17 H                     0.137998
     18 H                     0.125913
     19 H                     0.133617
     20 H                     0.138427
     21 H                     0.149621
     22 H                     0.146138
     23 H                     0.336229
     24 H                     0.345282
     25 H                     0.149357
  ----------------------------------------
  Sum of atomic charges =     0.000000

                    Cartesian Multipole Moments
 -----------------------------------------------------------------
    Charge (ESU x 10^10)
                 0.0000
    Dipole Moment (Debye)
         X       1.2346      Y      -2.0609      Z       0.5152
       Tot       2.4570
    Quadrupole Moments (Debye-Ang)
        XX     -84.5666     XY       1.2496     YY     -73.1960
        XZ       0.0594     YZ      -0.7950     ZZ     -89.2772

 Total job time:  41.60s(wall), 41.47s(cpu)
        *  Thank you very much for using Q-Chem.  Have a nice day.  *
