 Q-Chem 5.2, Q-Chem, Inc., Pleasanton, CA (2019)
 Q-Chem 5.2.1 for Intel X86 EM64T Linux

User input:
--------------------------------------------------------------
$molecule
0 1
C        -4.32606386520000   -0.94682266570000   -0.07642340430000
C        -3.54994863980000    0.06902724140000    0.27916551860000
C        -2.10441888010000    0.12392840780000    0.08702282120000
C        -1.31556880980000   -1.01318675630000    0.10436300180000
C         0.07299300300000   -0.94289169180000   -0.04131964290000
C         0.90984492500000   -2.13605539940000   -0.06258167350000
C         0.61443910670000   -3.28476942600000    0.53217015940000
C         0.61411072980000    0.33943991380000   -0.19260252040000
C         2.08685107420000    0.57483341400000   -0.31309694380000
O         2.62098803630000    1.19778315210000   -1.19138089540000
O         2.75141163580000    0.00373444830000    0.70226803040000
C         4.16073476140000    0.18043338910000    0.69911897980000
N        -0.12180188370000    1.43934969220000   -0.24253747840000
C        -1.43986657180000    1.35910963440000   -0.11865772260000
N        -2.10640175900000    2.54884431630000   -0.16373047870000
H        -5.38718744010000   -0.93623106390000    0.10397310990000
H        -3.93581222730000   -1.81876322110000   -0.57368416310000
H        -3.99027521190000    0.93646633770000    0.75528318170000
H        -1.78390009300000   -1.97623194530000    0.23977240420000
H         1.84037923540000   -2.04202424000000   -0.60630487530000
H        -0.28239911400000   -3.41962592170000    1.11312306570000
H         1.27416721790000   -4.13315850150000    0.47469163990000
H         4.53478446820000   -0.34518314590000    1.57379175790000
H         4.40896137100000    1.24234893410000    0.75224939450000
H         4.59365599920000   -0.23425208890000   -0.21392661050000
H        -1.54694483460000    3.32912032110000   -0.46764301400000
H        -3.07459846220000    2.55250630150000   -0.43258976340000
$end

$rem
BASIS = 6-31G*
GUI = 2
METHOD = B3LYP
PRINT_ORBITALS false
MOLDEN_FORMAT false
--------------------------------------------------------------

             Standard Nuclear Orientation (Angstroms)
    I     Atom           X                Y                Z
 ----------------------------------------------------------------
    1      C       4.2781721086    -1.0509757669     0.1529707557
    2      C       3.5301793852    -0.0677258656    -0.3312563360
    3      C       2.0915015323     0.0665797046    -0.1271551603
    4      C       1.2641476923    -1.0319818115     0.0286146401
    5      C      -0.1180125753    -0.8910839991     0.1836937751
    6      C      -0.9944685777    -2.0378948542     0.3863328258
    7      C      -0.7503770896    -3.2690439664    -0.0440501015
    8      C      -0.6119513224     0.4186973259     0.1598894766
    9      C      -2.0730992955     0.7224586924     0.2679115159
   10      O      -2.5679829708     1.4821809012     1.0570019312
   11      O      -2.7769534371     0.0385574414    -0.6462160604
   12      C      -4.1790858698     0.2653793172    -0.6469791866
   13      N       0.1618907854     1.4869848050     0.0424473658
   14      C       1.4737067329     1.3419027192    -0.0885842762
   15      N       2.1811911497     2.5009089859    -0.2225230538
   16      H       5.3352129795    -1.1047660747    -0.0430127273
   17      H       3.8684554575    -1.8291947149     0.7745433339
   18      H       3.9902018496     0.7071896559    -0.9320153324
   19      H       1.6965619926    -2.0209825296     0.0239901840
   20      H      -1.9101766499    -1.8341308057     0.9251554505
   21      H       0.1295233900    -3.5172158209    -0.6134332980
   22      H      -1.4373661705    -4.0761325359     0.1429339305
   23      H      -4.5882871734    -0.3643102097    -1.4326532836
   24      H      -4.3919732638     1.3175491282    -0.8462818755
   25      H      -4.6075180844    -0.0002590666     0.3219992343
   26      H       1.6548659019     3.3361920454    -0.0238538135
   27      H       3.1541411625     2.5070286788     0.0285434775
 ----------------------------------------------------------------

    9    -686.3108943403      6.46e-06  Convergence criterion met
 Total energy in the final basis set =     -686.3108943403

                    Orbital Energies (a.u.)
 --------------------------------------------------------------

 Alpha MOs
 -- Occupied --
-19.1897 -19.1305 -14.3502 -14.3223 -10.3077 -10.2623 -10.2362 -10.2297
-10.2023 -10.2017 -10.2012 -10.1964 -10.1902 -10.1900 -10.1772  -1.1059
 -1.0141  -0.9745  -0.9015  -0.8327  -0.8067  -0.7578  -0.7463  -0.7164
 -0.6617  -0.6416  -0.5892  -0.5788  -0.5590  -0.5420  -0.5400  -0.4911
 -0.4887  -0.4813  -0.4733  -0.4623  -0.4453  -0.4338  -0.4274  -0.4142
 -0.4085  -0.4022  -0.3848  -0.3739  -0.3568  -0.3477  -0.3360  -0.3176
 -0.2991  -0.2830  -0.2731  -0.2548  -0.2485  -0.2033

          Ground-State Mulliken Net Atomic Charges

     Atom                 Charge (a.u.)
  ----------------------------------------
      1 C                    -0.336086
      2 C                    -0.151056
      3 C                     0.145486
      4 C                    -0.225995
      5 C                     0.141937
      6 C                    -0.111305
      7 C                    -0.350630
      8 C                     0.194057
      9 C                     0.533362
     10 O                    -0.458999
     11 O                    -0.428657
     12 C                    -0.219792
     13 N                    -0.554465
     14 C                     0.424544
     15 N                    -0.776439
     16 H                     0.147422
     17 H                     0.149739
     18 H                     0.137568
     19 H                     0.139437
     20 H                     0.136847
     21 H                     0.140703
     22 H                     0.142113
     23 H                     0.165884
     24 H                     0.171634
     25 H                     0.166338
     26 H                     0.344638
     27 H                     0.331715
  ----------------------------------------
  Sum of atomic charges =     0.000000

                    Cartesian Multipole Moments
 -----------------------------------------------------------------
    Charge (ESU x 10^10)
                -0.0000
    Dipole Moment (Debye)
         X       2.0600      Y      -0.9657      Z      -0.7096
       Tot       2.3833
    Quadrupole Moments (Debye-Ang)
        XX     -68.2137     XY       8.3304     YY     -81.2928
        XZ       4.8540     YZ      -2.4172     ZZ     -91.1188

 Total job time:  44.42s(wall), 44.21s(cpu)
        *  Thank you very much for using Q-Chem.  Have a nice day.  *
