 Q-Chem 5.2, Q-Chem, Inc., Pleasanton, CA (2019)
 Q-Chem 5.2.1 for Intel X86 EM64T Linux

User input:
--------------------------------------------------------------
$molecule
0 1
C         3.19588735840000   -2.63175382320000    0.00449626890000
C         2.63699266570000   -1.42549405970000   -0.00172432350000
C         1.21547270410000   -1.13432785950000   -0.00082686820000
C         0.20587386770000   -2.07799401200000   -0.00111437770000
C        -1.15194715280000   -1.74155094870000   -0.00154573310000
C        -1.60441900100000   -0.43578420100000   -0.00152156550000
C        -2.99756063530000   -0.03003204120000   -0.00294216980000
C        -4.05469858110000   -0.83609403910000    0.00616451930000
C        -0.60060032560000    0.56586390400000   -0.00100767420000
N        -0.78709786900000    1.88608907020000   -0.00058163810000
S         0.64681939670000    2.61129525100000    0.00011589600000
N         1.57636538280000    1.30058865310000    0.00002562750000
C         0.79518340030000    0.22004179930000   -0.00059727720000
H         4.26558204320000   -2.74966861670000    0.00286127710000
H         2.62082476290000   -3.54212172650000    0.01177698970000
H         3.26166603560000   -0.54214359860000   -0.00785016580000
H         0.46644815610000   -3.12525616250000   -0.00172735920000
H        -1.87121734080000   -2.54608285480000   -0.00248628800000
H        -3.13793956460000    1.04263455790000   -0.01148952130000
H        -3.97078010490000   -1.90946985070000    0.01622949750000
H        -5.05587258280000   -0.44142767650000    0.00410483030000
$end

$rem
BASIS = 6-31G*
GUI = 2
METHOD = B3LYP
PRINT_ORBITALS false
MOLDEN_FORMAT false
--------------------------------------------------------------

             Standard Nuclear Orientation (Angstroms)
    I     Atom           X                Y                Z
 ----------------------------------------------------------------
    1      C       3.7347790042    -1.7139979408     0.0037142764
    2      C       2.9023260429    -0.6774394080    -0.0020360079
    3      C       1.4524952632    -0.7364950827    -0.0011993168
    4      C       0.6993208507    -1.8951681513    -0.0020507405
    5      C      -0.6995614847    -1.8949626922    -0.0025137365
    6      C      -1.4526299164    -0.7362370113    -0.0019598032
    7      C      -2.9024568790    -0.6772438538    -0.0033854597
    8      C      -3.7348522460    -1.7137782379     0.0052131613
    9      C      -0.7190031027     0.4773286460    -0.0008565351
   10      N      -1.2173703029     1.7140198531     0.0001418405
   11      S       0.0001928584     2.7626292541     0.0013618811
   12      N       1.2175360925     1.7137809935     0.0008042361
   13      C       0.7189833631     0.4771440726    -0.0004136004
   14      H       4.8014554684    -1.5713367028     0.0021708127
   15      H       3.3953972951    -2.7359048144     0.0105050176
   16      H       3.2963581033     0.3301663147    -0.0076773799
   17      H       1.2039819964    -2.8490933943    -0.0031024696
   18      H      -1.2043621487    -2.8487951719    -0.0039158977
   19      H      -3.2965526747     0.3302362392    -0.0114662813
   20      H      -3.3953911774    -2.7355186418     0.0148036402
   21      H      -4.8015384958    -1.5713298635     0.0031964986
 ----------------------------------------------------------------

    9    -893.5135880710      6.29e-06  Convergence criterion met
 Total energy in the final basis set =     -893.5135880710

                    Orbital Energies (a.u.)
 --------------------------------------------------------------

 Alpha MOs
 -- Occupied --
-88.9748 -14.3624 -14.3624 -10.2375 -10.2371 -10.2099 -10.2099 -10.2039
-10.2034 -10.1933 -10.1933 -10.1864 -10.1864  -8.0308  -5.9961  -5.9902
 -5.9885  -1.0297  -0.8931  -0.8734  -0.8107  -0.7743  -0.7679  -0.7232
 -0.6616  -0.6266  -0.6236  -0.5807  -0.5355  -0.5188  -0.5076  -0.4853
 -0.4724  -0.4583  -0.4344  -0.4283  -0.4103  -0.3870  -0.3847  -0.3737
 -0.3687  -0.3549  -0.3509  -0.3162  -0.2965  -0.2920  -0.2755  -0.2672
 -0.2094

          Ground-State Mulliken Net Atomic Charges

     Atom                 Charge (a.u.)
  ----------------------------------------
      1 C                    -0.349545
      2 C                    -0.103148
      3 C                     0.189859
      4 C                    -0.216118
      5 C                    -0.216154
      6 C                     0.189880
      7 C                    -0.103129
      8 C                    -0.349543
      9 C                     0.163988
     10 N                    -0.568224
     11 S                     0.584918
     12 N                    -0.568224
     13 C                     0.163991
     14 H                     0.150796
     15 H                     0.143007
     16 H                     0.161676
     17 H                     0.135265
     18 H                     0.135247
     19 H                     0.161650
     20 H                     0.143010
     21 H                     0.150799
  ----------------------------------------
  Sum of atomic charges =     0.000000

                    Cartesian Multipole Moments
 -----------------------------------------------------------------
    Charge (ESU x 10^10)
                -0.0000
    Dipole Moment (Debye)
         X      -0.0001      Y      -1.5118      Z      -0.0025
       Tot       1.5118
    Quadrupole Moments (Debye-Ang)
        XX     -77.9283     XY       0.0006     YY     -72.7897
        XZ      -0.0000     YZ      -0.0301     ZZ     -84.3846

 Total job time:  32.55s(wall), 32.44s(cpu)
        *  Thank you very much for using Q-Chem.  Have a nice day.  *
