 Q-Chem 5.2, Q-Chem, Inc., Pleasanton, CA (2019)
 Q-Chem 5.2.1 for Intel X86 EM64T Linux

User input:
--------------------------------------------------------------
$molecule
0 1
C        -3.16191578000000   -3.19706449740000   -0.14645525470000
C        -3.10683089570000   -1.99942235510000    0.43180185260000
C        -2.22808656590000   -0.92916730740000    0.04453078040000
C        -1.28934999580000   -0.87270303500000   -0.95413631760000
C        -0.61098780790000    0.35618797270000   -1.03829876380000
C         0.48411681110000    0.61626699050000   -2.02602567030000
C         1.86989955320000    0.50398184870000   -1.37559444880000
C         2.15308136690000   -0.91026719380000   -0.87546964540000
C         3.54743094240000   -1.06512406250000   -0.26853193620000
C         3.71616856590000   -0.32904103490000    1.05904503740000
C         5.08171778570000   -0.59846973640000    1.67961121230000
C        -1.03351864780000    1.26033639360000   -0.08505436020000
C        -0.57207867100000    2.60479290580000    0.12121742150000
C        -0.96613247610000    3.40348414580000    1.11004475760000
S        -2.28151488630000    0.57388025260000    0.91412549320000
H        -3.84669801100000   -3.95222160900000    0.19652034990000
H        -2.53015623060000   -3.46277308280000   -0.97612704870000
H        -3.76042315820000   -1.77392727220000    1.26470695170000
H        -1.08888637200000   -1.69467532690000   -1.61796953440000
H         0.36936727660000    1.61439730990000   -2.45526260680000
H         0.40867476540000   -0.10916027620000   -2.83866952020000
H         1.92652962320000    1.20621860800000   -0.54285834140000
H         2.62903678370000    0.78548959140000   -2.10947412110000
H         2.05659047060000   -1.60418150940000   -1.71483931930000
H         1.40436694740000   -1.18721846730000   -0.12974554580000
H         4.29463659990000   -0.70430334860000   -0.97984723300000
H         3.73868601350000   -2.12830574940000   -0.10200182010000
H         2.93329497250000   -0.65125516470000    1.74963178340000
H         3.60156418850000    0.74516954280000    0.90505541300000
H         5.21248270640000   -1.66169934930000    1.86990713110000
H         5.18649385170000   -0.06596146370000    2.62209069810000
H         5.87522624110000   -0.27158119850000    1.01079701330000
H         0.14933211410000    2.95990495720000   -0.60302687180000
H        -1.67877917770000    3.07466978780000    1.84837507300000
H        -0.58857407260000    4.40539952110000    1.21219997380000
$end

$rem
BASIS = 6-31G*
GUI = 2
METHOD = B3LYP
PRINT_ORBITALS false
MOLDEN_FORMAT false
--------------------------------------------------------------

             Standard Nuclear Orientation (Angstroms)
    I     Atom           X                Y                Z
 ----------------------------------------------------------------
    1      C      -3.3442353534    -3.0827177956     0.3671497023
    2      C      -3.2465355074    -1.8201914077     0.7773255031
    3      C      -2.3548106835    -0.8346771922     0.2285041140
    4      C      -1.4425484293    -0.9369880186    -0.7908391104
    5      C      -0.7392716402     0.2515134391    -1.0559762959
    6      C       0.3341361383     0.3483215924    -2.0956510461
    7      C       1.7342205138     0.2883626999    -1.4693673980
    8      C       1.9990343519    -1.0529223608    -0.7902170980
    9      C       3.4055403793    -1.1611079476    -0.2014884297
   10      C       3.6268242485    -0.2582938099     1.0104155731
   11      C       5.0023428766    -0.4774036241     1.6287668223
   12      C      -1.1152900253     1.2859602661    -0.2233770484
   13      C      -0.6183039627     2.6335115596    -0.2111877869
   14      C      -0.9672660616     3.5675217696     0.6701838599
   15      S      -2.3507678365     0.7722701708     0.8887353958
   16      H      -4.0362399918    -3.7670552945     0.8250066674
   17      H      -2.7414056232    -3.4735633339    -0.4340447484
   18      H      -3.8720004364    -1.4681829143     1.5876621155
   19      H      -1.2787409968    -1.8454653087    -1.3425045809
   20      H       0.2302230543     1.2825234719    -2.6525575527
   21      H       0.2203330986    -0.4773130829    -2.8011313786
   22      H       1.8292483786     1.0942059720    -0.7404097989
   23      H       2.4792552952     0.4491473525    -2.2524298394
   24      H       1.8641771695    -1.8503769202    -1.5259132213
   25      H       1.2648404358    -1.2078754043     0.0037152484
   26      H       4.1410476424    -0.9184185364    -0.9725968846
   27      H       3.5773045781    -2.1969597531     0.1021135767
   28      H       2.8559754253    -0.4645927054     1.7566433667
   29      H       3.5322519914     0.7881772798     0.7159165416
   30      H       5.1142998329    -1.5085477138     1.9573649310
   31      H       5.1446557251     0.1737673533     2.4881468762
   32      H       5.7845171344    -0.2638306094     0.9032227398
   33      H       0.0909445484     2.8694811745    -0.9937175159
   34      H      -1.6667816919     3.3592648644     1.4629150895
   35      H      -0.5646412548     4.5639563541     0.6273838677
 ----------------------------------------------------------------

    9    -943.6851141608      3.56e-06  Convergence criterion met
 Total energy in the final basis set =     -943.6851141608

                    Orbital Energies (a.u.)
 --------------------------------------------------------------

 Alpha MOs
 -- Occupied --
-88.8996 -10.2162 -10.2112 -10.1977 -10.1953 -10.1924 -10.1873 -10.1837
-10.1819 -10.1787 -10.1783 -10.1717 -10.1715 -10.1711 -10.1656  -7.9615
 -5.9255  -5.9220  -5.9184  -0.8891  -0.8154  -0.8029  -0.7822  -0.7672
 -0.7369  -0.7073  -0.6914  -0.6391  -0.6226  -0.6015  -0.5780  -0.5627
 -0.5340  -0.5227  -0.4871  -0.4687  -0.4597  -0.4544  -0.4490  -0.4362
 -0.4191  -0.4146  -0.4065  -0.3992  -0.3866  -0.3771  -0.3702  -0.3614
 -0.3588  -0.3514  -0.3500  -0.3354  -0.3253  -0.3220  -0.3179  -0.3095
 -0.3078  -0.2680  -0.2442  -0.1946

          Ground-State Mulliken Net Atomic Charges

     Atom                 Charge (a.u.)
  ----------------------------------------
      1 C                    -0.341562
      2 C                    -0.088570
      3 C                    -0.127580
      4 C                    -0.162166
      5 C                     0.155938
      6 C                    -0.349105
      7 C                    -0.256973
      8 C                    -0.259648
      9 C                    -0.247434
     10 C                    -0.252172
     11 C                    -0.441261
     12 C                    -0.202574
     13 C                    -0.055954
     14 C                    -0.377832
     15 S                     0.232440
     16 H                     0.146601
     17 H                     0.142390
     18 H                     0.137223
     19 H                     0.133057
     20 H                     0.145683
     21 H                     0.142309
     22 H                     0.147392
     23 H                     0.128950
     24 H                     0.120632
     25 H                     0.147330
     26 H                     0.124653
     27 H                     0.126394
     28 H                     0.134644
     29 H                     0.135880
     30 H                     0.141474
     31 H                     0.141429
     32 H                     0.140716
     33 H                     0.138092
     34 H                     0.155297
     35 H                     0.144307
  ----------------------------------------
  Sum of atomic charges =     0.000000

                    Cartesian Multipole Moments
 -----------------------------------------------------------------
    Charge (ESU x 10^10)
                -0.0000
    Dipole Moment (Debye)
         X       0.6440      Y      -0.4143      Z      -0.6719
       Tot       1.0188
    Quadrupole Moments (Debye-Ang)
        XX    -101.6500     XY       3.8470     YY     -94.7428
        XZ      -4.0024     YZ       0.7108     ZZ     -98.3456

 Total job time:  57.60s(wall), 57.43s(cpu)
        *  Thank you very much for using Q-Chem.  Have a nice day.  *
