 Q-Chem 5.2, Q-Chem, Inc., Pleasanton, CA (2019)
 Q-Chem 5.2.1 for Intel X86 EM64T Linux

User input:
--------------------------------------------------------------
$molecule
0 1
C        -7.41791873390000    0.58244484490000   -0.25549657100000
C        -6.42757990210000   -0.26077434900000    0.02952707120000
C        -5.02624101040000    0.04423938900000   -0.06006214590000
C        -4.39364295120000    1.20525027130000   -0.43574599230000
C        -2.99907538650000    1.12116934770000   -0.39708691370000
C        -2.53567426450000   -0.10917595930000    0.00999593980000
C        -1.18795702530000   -0.53636642020000    0.16152195310000
C        -0.72258950780000   -1.76635297940000    0.56710076370000
C         0.67060356670000   -1.84926021490000    0.60739997650000
C         1.30048644910000   -0.68249790910000    0.23299625270000
C         2.69919998380000   -0.42432901920000    0.16237007760000
C         3.73612549980000   -1.28535807790000    0.45108540400000
C         4.99850868560000   -0.71249487340000    0.27724750530000
C         4.95778108970000    0.59486605030000   -0.14672008810000
C         6.02815921650000    1.50978629920000   -0.43322964520000
C         7.32631262470000    1.23194258290000   -0.33020861800000
S         3.31151942510000    1.12376625160000   -0.33354059350000
S         0.13484125160000    0.54323484420000   -0.17798942590000
S        -3.86092032390000   -1.18211742860000    0.35112929260000
H        -8.44743862590000    0.28485912110000   -0.16520515240000
H        -7.23614503560000    1.59026606890000   -0.58575779220000
H        -6.65596040480000   -1.26631079310000    0.35866253620000
H        -4.92246809910000    2.09312625840000   -0.73097660840000
H        -2.33678574450000    1.92859835440000   -0.65649258360000
H        -1.38238377130000   -2.57611532660000    0.82486143060000
H         1.20386797150000   -2.73473616900000    0.90140435120000
H         3.58268936000000   -2.29789574880000    0.77768553950000
H         5.91554258500000   -1.24337667090000    0.45777349440000
H         5.71333467850000    2.49382125610000   -0.75588758050000
H         7.68325751550000    0.26745928640000   -0.01344605590000
H         8.07480110920000    1.96855702590000   -0.56218004460000
$end

$rem
BASIS = 6-31G*
GUI = 2
METHOD = B3LYP
PRINT_ORBITALS false
MOLDEN_FORMAT false
--------------------------------------------------------------

             Standard Nuclear Orientation (Angstroms)
    I     Atom           X                Y                Z
 ----------------------------------------------------------------
    1      C       7.3801572670    -1.0090433092     0.0024829818
    2      C       6.4364556946    -0.0696533767     0.0038916780
    3      C       5.0207058151    -0.3155247946     0.0007576657
    4      C       4.3266940591    -1.5019479755    -0.0027982018
    5      C       2.9385898567    -1.3390147482    -0.0043165340
    6      C       2.5418562964    -0.0211362585    -0.0019943323
    7      C       1.2189532754     0.5001325530    -0.0019418084
    8      C       0.8202264002     1.8173052603    -0.0009560660
    9      C      -0.5665530820     1.9795614575    -0.0005395717
   10      C      -1.2581383845     0.7879346891    -0.0010747155
   11      C      -2.6687259933     0.5922788670    -0.0006486515
   12      C      -3.6580121115     1.5520986829    -0.0016499344
   13      C      -4.9493385082     1.0187333480    -0.0007952285
   14      C      -4.9787823269    -0.3559411191     0.0009406403
   15      C      -6.0967193116    -1.2587652841     0.0021847718
   16      C      -7.3781352925    -0.8968461140     0.0027611522
   17      S      -3.3632071458    -0.9999375429     0.0014231325
   18      S      -0.1598947569    -0.5625904008    -0.0023604287
   19      S       3.9228197587     1.0356399939     0.0020487890
   20      H       8.4242112620    -0.7510428169     0.0053136676
   21      H       7.1445498909    -2.0589444934    -0.0013168658
   22      H       6.7184820066     0.9753527072     0.0077378290
   23      H       4.8071372704    -2.4633601698    -0.0041529939
   24      H       2.2339017364    -2.1521986622    -0.0069712198
   25      H       1.5225297778     2.6323230124    -0.0006095108
   26      H      -1.0515616488     2.9385416746     0.0003527870
   27      H      -3.4504899383     2.6067907935    -0.0030398893
   28      H      -5.8366086402     1.6254685075    -0.0014641199
   29      H      -5.8351191815    -2.3090569629     0.0026214469
   30      H      -7.6828446117     0.1352044196     0.0023979437
   31      H      -8.1650755448    -1.6299020800     0.0035239661
 ----------------------------------------------------------------

    9   -1811.4284398062      5.04e-06  Convergence criterion met
 Total energy in the final basis set =    -1811.4284398062

                    Orbital Energies (a.u.)
 --------------------------------------------------------------

 Alpha MOs
 -- Occupied --
-88.9105 -88.9094 -88.9089 -10.2294 -10.2285 -10.2283 -10.2275 -10.2212
-10.2210 -10.2008 -10.2007 -10.1958 -10.1950 -10.1949 -10.1942 -10.1927
-10.1926 -10.1842 -10.1839  -7.9723  -7.9713  -7.9707  -5.9364  -5.9353
 -5.9347  -5.9329  -5.9318  -5.9312  -5.9289  -5.9282  -5.9276  -0.9080
 -0.8945  -0.8777  -0.8074  -0.7950  -0.7652  -0.7540  -0.7443  -0.7358
 -0.7196  -0.6838  -0.6258  -0.6161  -0.6037  -0.5837  -0.5446  -0.5407
 -0.5320  -0.5180  -0.5104  -0.4978  -0.4786  -0.4522  -0.4408  -0.4280
 -0.4235  -0.4172  -0.4155  -0.4053  -0.3989  -0.3930  -0.3778  -0.3749
 -0.3674  -0.3649  -0.3634  -0.3588  -0.3461  -0.3355  -0.3234  -0.3004
 -0.2654  -0.2617  -0.2584  -0.2527  -0.2182  -0.1776

          Ground-State Mulliken Net Atomic Charges

     Atom                 Charge (a.u.)
  ----------------------------------------
      1 C                    -0.341438
      2 C                    -0.092091
      3 C                    -0.120056
      4 C                    -0.127675
      5 C                    -0.145597
      6 C                    -0.150217
      7 C                    -0.137587
      8 C                    -0.157471
      9 C                    -0.116636
     10 C                    -0.152399
     11 C                    -0.167790
     12 C                    -0.108288
     13 C                    -0.133926
     14 C                    -0.119152
     15 C                    -0.092566
     16 C                    -0.341983
     17 S                     0.252765
     18 S                     0.267886
     19 S                     0.251740
     20 H                     0.147977
     21 H                     0.143107
     22 H                     0.137946
     23 H                     0.141556
     24 H                     0.155024
     25 H                     0.154573
     26 H                     0.141913
     27 H                     0.140490
     28 H                     0.140910
     29 H                     0.138637
     30 H                     0.142372
     31 H                     0.147975
  ----------------------------------------
  Sum of atomic charges =     0.000000

                    Cartesian Multipole Moments
 -----------------------------------------------------------------
    Charge (ESU x 10^10)
                 0.0000
    Dipole Moment (Debye)
         X      -0.2213      Y       0.5872      Z      -0.0005
       Tot       0.6275
    Quadrupole Moments (Debye-Ang)
        XX    -111.3719     XY      -4.3397     YY    -117.7853
        XZ       0.0105     YZ       0.0140     ZZ    -138.9108

 Total job time:  63.93s(wall), 63.34s(cpu)
        *  Thank you very much for using Q-Chem.  Have a nice day.  *
