 Q-Chem 5.2, Q-Chem, Inc., Pleasanton, CA (2019)
 Q-Chem 5.2.1 for Intel X86 EM64T Linux

User input:
--------------------------------------------------------------
$molecule
0 1
C         3.93662226080000    0.00121008320000    2.60214604100000
C         3.81957285910000    0.34454800480000    1.32506741860000
C         2.62227153630000    0.17655148510000    0.52849801510000
C         1.33187552940000    0.13050191670000    0.98952470630000
N         0.45124753690000    0.05594717440000   -0.05333459250000
Si       -1.32559885830000   -0.00133505690000    0.01094069650000
C        -1.76365126380000   -0.39350982040000    1.84335784250000
C        -1.70303024360000    0.85203795720000    2.73077870400000
C        -3.12689051320000   -1.06120084200000    2.01616580960000
C        -1.94045271860000    1.74962194630000   -0.51322843150000
C        -1.49233050090000    2.11642821610000   -1.92835129590000
C        -3.45245443570000    1.93817926260000   -0.39074382170000
C        -1.74321956790000   -1.40321489610000   -1.24311014380000
C        -1.14517505720000   -2.73677501420000   -0.78970863160000
C        -3.22804862390000   -1.56902948340000   -1.55920064520000
C         1.19779130620000    0.05725935850000   -1.19933655550000
C         2.53465407180000    0.12155628880000   -0.90324025840000
C         3.59727841940000    0.09033132220000   -1.88636417470000
C         4.83193554500000   -0.35555664730000   -1.68760210200000
H         4.84518025930000    0.17206146620000    3.15409720250000
H         3.13233623140000   -0.47291069370000    3.13902956180000
H         4.65630567210000    0.80073490250000    0.81169189000000
H         0.98412202390000    0.16859307380000    2.00042211330000
H        -1.01367675690000   -1.10033519040000    2.21414395350000
H        -2.50593304430000    1.54073568220000    2.48131383170000
H        -0.76066011370000    1.38120116210000    2.61779835980000
H        -1.81434289110000    0.57409579980000    3.77829196400000
H        -3.92180028380000   -0.43799377540000    1.61414073200000
H        -3.33186037090000   -1.22735893400000    3.07326448790000
H        -3.15846946320000   -2.02448456370000    1.51539617610000
H        -1.46845895560000    2.46782540630000    0.16746003740000
H        -1.91504003470000    1.43044499980000   -2.65902522530000
H        -0.40921193880000    2.08610291720000   -2.00927976070000
H        -1.82304924560000    3.12302707180000   -2.18037055300000
H        -3.98302326720000    1.28928883340000   -1.08183894090000
H        -3.72286158100000    2.96751834760000   -0.62266717940000
H        -3.79919609570000    1.71787176000000    0.61472373160000
H        -1.25154401610000   -1.14171940240000   -2.18627012200000
H        -1.61146660990000   -3.08099050160000    0.12996602420000
H        -0.07640021130000   -2.63934122400000   -0.61542303000000
H        -1.29813002030000   -3.49971732350000   -1.55164579630000
H        -3.80182669980000   -1.79600220520000   -0.66583499560000
H        -3.37069482890000   -2.38410028530000   -2.26788149190000
H        -3.63295978300000   -0.66481118780000   -2.00517517490000
H         0.73137815980000   -0.02160293350000   -2.16068929390000
H         3.30800618490000    0.43770065390000   -2.87207706160000
H         5.15059982360000   -0.75695994150000   -0.74129507650000
H         5.56462287790000   -0.35153442790000   -2.47720950520000
$end

$rem
BASIS = 6-31G*
GUI = 2
METHOD = B3LYP
PRINT_ORBITALS false
MOLDEN_FORMAT false
--------------------------------------------------------------

             Standard Nuclear Orientation (Angstroms)
    I     Atom           X                Y                Z
 ----------------------------------------------------------------
    1      C       3.9653820348    -2.6509629131    -0.1413373676
    2      C       3.8682757077    -1.3901563576     0.2629502644
    3      C       2.6815188180    -0.5699153155     0.1401137052
    4      C       1.3844885663    -1.0102302313     0.0799196162
    5      N       0.5183564259     0.0471470992     0.0602248389
    6      Si     -1.2595012542     0.0103989067     0.0105527289
    7      C      -1.7255675229    -1.7950169524    -0.4655768340
    8      C      -1.6709427259    -2.7414371620     0.7360407749
    9      C      -3.0946372073    -1.9168844522    -1.1325788255
   10      C      -1.8575783574     0.4591922045     1.7880614703
   11      C      -1.3874958137     1.8488931488     2.2189753487
   12      C      -3.3701453331     0.3489273910     1.9796034983
   13      C      -1.6667131997     1.3354020994    -1.3276784251
   14      C      -1.0822294836     0.9376692320    -2.6848077883
   15      C      -3.1477674383     1.6796516044    -1.4694374763
   16      C       1.2810741176     1.1812908293     0.1115039070
   17      C       2.6139249695     0.8638986317     0.1536935493
   18      C       3.6902047862     1.8325141368     0.1628530643
   19      C       4.9195403038     1.6380263783    -0.2993258596
   20      H       4.8669129659    -3.2230044742    -0.0023109345
   21      H       3.1510633167    -3.1534434219    -0.6356134105
   22      H       4.7146091299    -0.9107533723     0.7380031411
   23      H       1.0226401525    -2.0168585547     0.0720361922
   24      H      -0.9846805662    -2.1421615070    -1.1936725561
   25      H      -2.4665684796    -2.5138660376     1.4405840524
   26      H      -0.7242760077    -2.6668784248     1.2643426172
   27      H      -1.7985702819    -3.7728936279     0.4093373250
   28      H      -3.8804540682    -1.5339366499    -0.4862541423
   29      H      -3.3154552042    -2.9619285697    -1.3475229449
   30      H      -3.1242119335    -1.3704707489    -2.0707900943
   31      H      -1.3914887582    -0.2613896500     2.4703029162
   32      H      -1.8034273117     2.6171806844     1.5709969805
   33      H      -0.3035142410     1.9160939051     2.1860683877
   34      H      -1.7092718803     2.0573240093     3.2383607467
   35      H      -3.8942886401     1.0774211542     1.3674391669
   36      H      -3.6317812844     0.5353661858     3.0203890788
   37      H      -3.7322734171    -0.6400007085     1.7138693455
   38      H      -1.1603333542     2.2581233820    -1.0246266598
   39      H      -1.5633332331     0.0419859150    -3.0695208818
   40      H      -0.0155328362     0.7440920679    -2.6021359696
   41      H      -1.2284015031     1.7370888414    -3.4097812084
   42      H      -3.7353513971     0.8061637242    -1.7351517876
   43      H      -3.2846632161     2.4282164717    -2.2490701334
   44      H      -3.5415189352     2.0877016105    -0.5426624199
   45      H       0.8279306254     2.1517031850     0.0811656929
   46      H       3.4167845820     2.8045175828     0.5583583951
   47      H       5.2226218868     0.7075416102    -0.7471072392
   48      H       5.6633631352     2.4162773961    -0.2621814652
 ----------------------------------------------------------------

    9   -1009.5144934559      2.16e-06  Convergence criterion met
 Total energy in the final basis set =    -1009.5144934559

                    Orbital Energies (a.u.)
 --------------------------------------------------------------

 Alpha MOs
 -- Occupied --
-66.1435 -14.3539 -10.1931 -10.1928 -10.1848 -10.1822 -10.1816 -10.1804
-10.1804 -10.1791 -10.1785 -10.1777 -10.1753 -10.1747 -10.1739 -10.1665
-10.1648 -10.1617 -10.1605  -5.2863  -3.6471  -3.6443  -3.6439  -0.9636
 -0.8062  -0.7950  -0.7853  -0.7830  -0.7678  -0.7194  -0.7045  -0.6914
 -0.6885  -0.6869  -0.6153  -0.6060  -0.5807  -0.5803  -0.5782  -0.5495
 -0.5166  -0.5115  -0.4838  -0.4660  -0.4644  -0.4489  -0.4445  -0.4395
 -0.4361  -0.4318  -0.4171  -0.4156  -0.4106  -0.4072  -0.4029  -0.3974
 -0.3941  -0.3915  -0.3887  -0.3862  -0.3723  -0.3509  -0.3495  -0.3474
 -0.3444  -0.3401  -0.3368  -0.3346  -0.3340  -0.3265  -0.2972  -0.2762
 -0.2746  -0.2689  -0.1998  -0.1929

          Ground-State Mulliken Net Atomic Charges

     Atom                 Charge (a.u.)
  ----------------------------------------
      1 C                    -0.361267
      2 C                    -0.110952
      3 C                     0.042791
      4 C                    -0.054819
      5 N                    -0.508811
      6 Si                    0.898260
      7 C                    -0.294039
      8 C                    -0.466791
      9 C                    -0.467946
     10 C                    -0.270995
     11 C                    -0.466153
     12 C                    -0.472040
     13 C                    -0.295086
     14 C                    -0.465290
     15 C                    -0.465981
     16 C                    -0.055472
     17 C                     0.046750
     18 C                    -0.111816
     19 C                    -0.362589
     20 H                     0.132398
     21 H                     0.128071
     22 H                     0.134724
     23 H                     0.143328
     24 H                     0.152151
     25 H                     0.151796
     26 H                     0.160439
     27 H                     0.144844
     28 H                     0.150574
     29 H                     0.145482
     30 H                     0.155255
     31 H                     0.152442
     32 H                     0.142503
     33 H                     0.164551
     34 H                     0.141592
     35 H                     0.150495
     36 H                     0.145223
     37 H                     0.150067
     38 H                     0.147809
     39 H                     0.147291
     40 H                     0.173516
     41 H                     0.141931
     42 H                     0.150699
     43 H                     0.144029
     44 H                     0.150357
     45 H                     0.141927
     46 H                     0.119098
     47 H                     0.147272
     48 H                     0.132383
  ----------------------------------------
  Sum of atomic charges =     0.000000

                    Cartesian Multipole Moments
 -----------------------------------------------------------------
    Charge (ESU x 10^10)
                 0.0000
    Dipole Moment (Debye)
         X      -3.1740      Y       0.1097      Z       0.0188
       Tot       3.1760
    Quadrupole Moments (Debye-Ang)
        XX    -129.8367     XY       1.0715     YY    -121.9116
        XZ       0.4234     YZ       1.1430     ZZ    -128.3116

 Total job time:  122.45s(wall), 122.13s(cpu)
        *  Thank you very much for using Q-Chem.  Have a nice day.  *
