 Q-Chem 5.4, Q-Chem, Inc., Pleasanton, CA (2021)
 Q-Chem 5.4.2 for Intel X86 EM64T Linux

User input:
--------------------------------------------------------------
$molecule
0 1
C           -1.14654762870000       -3.79715877900000       -0.29542842820000
C           -1.21351080930000       -2.54816418220000        0.14668485440000
C           -0.13864783520000       -1.56380684970000        0.02964488260000
C            1.19047805900000       -1.96444248790000        0.10528277740000
C            2.23595097870000       -1.06197508690000        0.04889556360000
C            1.96431619960000        0.29567098760000       -0.08627727140000
O            2.89997363010000        1.27872593650000       -0.15565776600000
C            4.25913207890000        0.92184267990000       -0.08451931650000
C            0.63801755970000        0.71631236450000       -0.16630063810000
C           -0.41213894650000       -0.18829378260000       -0.11019692270000
C           -1.79311826980000        0.26446814280000       -0.25670720170000
C           -2.27498918000000        1.44874954620000        0.08349731450000
F           -1.62802631170000        2.45518635100000        0.65765104550000
F           -3.54872077590000        1.79994519120000       -0.09432154230000
H           -1.96378887850000       -4.48581334470000       -0.16647879680000
H           -0.28321979800000       -4.17534499860000       -0.81671046180000
H           -2.11366653470000       -2.20938882250000        0.64282116910000
H            1.41364278700000       -3.01245791450000        0.23617125980000
H            3.24877844430000       -1.42591043220000        0.11757608720000
H            4.81281540140000        1.85622923860000       -0.16024715280000
H            4.54621919470000        0.26391483810000       -0.91121809450000
H            4.49845670170000        0.43670259650000        0.86727069630000
H            0.45676989560000        1.77089025740000       -0.29226777570000
H           -2.50332844220000       -0.42444171820000       -0.68806096220000
$end

$rem
BASIS = 6-31G*
GUI = 2
METHOD = B3LYP
PRINT_ORBITALS false
MOLDEN_FORMAT false
$end
--------------------------------------------------------------

             Standard Nuclear Orientation (Angstroms)
    I     Atom           X                Y                Z
 ----------------------------------------------------------------
    1      C      -0.8605726736    -3.8316445055    -0.1502733618
    2      C      -1.0563354294    -2.5782743352     0.2378965555
    3      C      -0.0791265494    -1.4997696636     0.0969050512
    4      C       1.2806186029    -1.7661728963     0.2106067955
    5      C       2.2352505825    -0.7695173706     0.1331723059
    6      C       1.8369082650     0.5488222658    -0.0632049162
    7      O       2.6747574102     1.6144407758    -0.1587638719
    8      C       4.0602665718     1.3942811420    -0.0509115396
    9      C       0.4781380797     0.8352185083    -0.1820820166
   10      C      -0.4809431537    -0.1640298129    -0.1049161171
   11      C      -1.8958902675     0.1463289420    -0.2924384431
   12      C      -2.4962765860     1.2909836824    -0.0100151382
   13      F      -1.9608626835     2.3777258598     0.5316968654
   14      F      -3.7940887803     1.5094856495    -0.2228307950
   15      H      -1.6101215497    -4.5906045973    -0.0056620200
   16      H       0.0454264107    -4.1449319404    -0.6413042780
   17      H      -1.9946852316    -2.3087648163     0.7048704146
   18      H       1.6009964140    -2.7814705400     0.3889305966
   19      H       3.2768362395    -1.0303956511     0.2333085479
   20      H       4.5228071608     2.3741798122    -0.1568972343
   21      H       4.4258729885     0.7345985242    -0.8445548590
   22      H       4.3260836868     0.9733322846     0.9241190881
   23      H       0.1987436120     1.8613077457    -0.3550923520
   24      H      -2.5276804910    -0.6250363518    -0.7058366160
 ----------------------------------------------------------------

    9    -700.0342679510      4.52e-06  Convergence criterion met
 Total energy in the final basis set =     -700.0342679510

                    Orbital Energies (a.u.)
 --------------------------------------------------------------

 Alpha MOs
 -- Occupied --
-24.7400 -24.7319 -19.1795 -10.3547 -10.2465 -10.2415 -10.2044 -10.1990
-10.1895 -10.1886 -10.1882 -10.1858 -10.1809 -10.1781  -1.2821  -1.2213
 -1.0704  -0.8689  -0.8050  -0.7923  -0.7470  -0.7329  -0.6930  -0.6446
 -0.6226  -0.6001  -0.5724  -0.5575  -0.5399  -0.5181  -0.5128  -0.4885
 -0.4761  -0.4730  -0.4492  -0.4389  -0.4368  -0.4342  -0.4280  -0.4162
 -0.4055  -0.3908  -0.3828  -0.3638  -0.3478  -0.3320  -0.3267  -0.2919
 -0.2742  -0.2285  -0.2069

          Ground-State Mulliken Net Atomic Charges

     Atom                 Charge (a.u.)
  ----------------------------------------
      1 C                    -0.341803
      2 C                    -0.132796
      3 C                     0.100413
      4 C                    -0.197954
      5 C                    -0.194488
      6 C                     0.385785
      7 O                    -0.504115
      8 C                    -0.215177
      9 C                    -0.251558
     10 C                     0.129764
     11 C                    -0.322487
     12 C                     0.557065
     13 F                    -0.233680
     14 F                    -0.248940
     15 H                     0.141470
     16 H                     0.142187
     17 H                     0.137552
     18 H                     0.132033
     19 H                     0.130007
     20 H                     0.170663
     21 H                     0.151279
     22 H                     0.151782
     23 H                     0.141836
     24 H                     0.171164
  ----------------------------------------
  Sum of atomic charges =     0.000000

                    Cartesian Multipole Moments
 -----------------------------------------------------------------
    Charge (ESU x 10^10)
                 0.0000
    Dipole Moment (Debye)
         X       2.0165      Y      -1.0531      Z      -0.0494
       Tot       2.2754
    Quadrupole Moments (Debye-Ang)
        XX     -67.6440     XY       3.0809     YY     -77.8873
        XZ       0.2107     YZ      -0.1556     ZZ     -81.4916

 Total job time:  53.82s(wall), 50.42s(cpu)
        *  Thank you very much for using Q-Chem.  Have a nice day.  *
