 Q-Chem 5.2, Q-Chem, Inc., Pleasanton, CA (2019)
 Q-Chem 5.2.1 for Intel X86 EM64T Linux

User input:
--------------------------------------------------------------
$molecule
0 1
C        -6.10746690570000   -0.70667973940000   -0.17339058210000
C        -5.00838392440000   -1.38010035060000    0.14775973960000
C        -3.63567298320000   -0.91183805470000    0.03580309560000
C        -3.28454223640000    0.33550766750000   -0.47949461510000
C        -1.96636154750000    0.73404041660000   -0.55864460620000
C        -0.92922731070000   -0.08539589800000   -0.10810740500000
C        -1.28260272000000   -1.33774318020000    0.40179806660000
C        -2.59967023890000   -1.74465707890000    0.46186644060000
S        -0.03370235150000   -2.41971688350000    1.04558116620000
C         1.30318628980000   -1.93852751560000   -0.01566228140000
C         2.26620171980000   -2.87819751150000   -0.31881654090000
C         3.37154312180000   -2.54757697490000   -1.10389506720000
C         4.42803463320000   -3.49331555690000   -1.42860696060000
C         4.52961147020000   -4.74866158120000   -1.00654683570000
C         3.44141650650000   -1.24444500670000   -1.59576146000000
C         2.46679432150000   -0.30997517480000   -1.31003498650000
C         1.38157078440000   -0.62533624250000   -0.49129135300000
N         0.40362946500000    0.31280142370000   -0.17329970640000
C         0.72880733510000    1.72354213310000   -0.14168610620000
C         0.19810592860000    2.37050446680000    1.14201192120000
C         0.59206461940000    3.84220346310000    1.26663853980000
C        -0.16083337360000    4.74783395160000    0.29303333200000
C         0.21711612710000    6.22345334520000    0.43292266560000
C        -0.25780709100000    6.84747158470000    1.73993400180000
H        -7.08438265120000   -1.14256998660000   -0.05428788360000
H        -6.08491648840000    0.29615716010000   -0.56395346660000
H        -5.10669011270000   -2.38532616750000    0.53936017390000
H        -4.04991729480000    1.00804433720000   -0.83337375420000
H        -1.74061808590000    1.69957030460000   -0.98243038150000
H        -2.82111542270000   -2.71899298140000    0.87203606800000
H         2.15330521090000   -3.87195036710000    0.08372526810000
H         5.19641562910000   -3.09668840880000   -2.08167513030000
H         3.80604588710000   -5.20451431140000   -0.35319876590000
H         5.35499571340000   -5.37261236660000   -1.30336383210000
H         4.27302736950000   -0.95769844730000   -2.22341476430000
H         2.54791907360000    0.67667384570000   -1.73945768440000
H         0.34831460550000    2.24275546720000   -1.02912181490000
H         1.81594365580000    1.81428422000000   -0.13699886860000
H         0.60762382190000    1.81474853670000    1.98894472140000
H        -0.88843844690000    2.28202889810000    1.18665788030000
H         1.66736750590000    3.94791135300000    1.10305128840000
H         0.37893584660000    4.16327547970000    2.28698355610000
H        -1.23546245300000    4.63605403200000    0.45637695710000
H         0.05445765420000    4.43719753930000   -0.73148549370000
H        -0.22689430080000    6.77494687200000   -0.39935593000000
H         1.30190108750000    6.32580300680000    0.35420733010000
H        -1.33202671790000    6.71890611040000    1.85439067760000
H        -0.03771346710000    7.91250182350000    1.74953427010000
H         0.23651462010000    6.39410507640000    2.59499686770000
$end

$rem
BASIS = 6-31G*
GUI = 2
METHOD = B3LYP
PRINT_ORBITALS false
MOLDEN_FORMAT false
--------------------------------------------------------------

             Standard Nuclear Orientation (Angstroms)
    I     Atom           X                Y                Z
 ----------------------------------------------------------------
    1      C       2.1909580787    -5.7166985364     0.6960083008
    2      C       1.1399903302    -5.0950194420     0.1729422020
    3      C       0.8671150714    -3.6665341552     0.2062299564
    4      C       1.6850389231    -2.7386049314     0.8501583771
    5      C       1.3838281100    -1.3925157144     0.8471140709
    6      C       0.2589140025    -0.8992056079     0.1827945258
    7      C      -0.5631660272    -1.8314157359    -0.4562830807
    8      C      -0.2729725887    -3.1801999527    -0.4357189184
    9      S      -1.9824376161    -1.2862513151    -1.3691575604
   10      C      -2.3895605849     0.1388864841    -0.3953581747
   11      C      -3.7115826850     0.5258865566    -0.3262970755
   12      C      -4.0902752866     1.6692143926     0.3785654782
   13      C      -5.4659512240     2.1352416897     0.4583643903
   14      C      -6.5233896924     1.6002516640    -0.1415987764
   15      C      -3.0856902351     2.3786559435     1.0361894779
   16      C      -1.7655753006     1.9793880596     0.9847734833
   17      C      -1.3776060187     0.8603002061     0.2467856254
   18      N      -0.0472198701     0.4591991495     0.1644398281
   19      C       1.0174730516     1.4319888643     0.2949716983
   20      C       2.0483940871     1.2565067801    -0.8250696966
   21      C       3.1485899008     2.3169700667    -0.7848208543
   22      C       4.1221471544     2.1255358062     0.3772756427
   23      C       5.2359940971     3.1736107204     0.4046874659
   24      C       6.2244524789     3.0350126583    -0.7472544006
   25      H       2.3035109176    -6.7844037288     0.6192775063
   26      H       2.9769259595    -5.1976909340     1.2171755810
   27      H       0.3883988472    -5.6812735012    -0.3417522419
   28      H       2.5699322916    -3.0689994907     1.3708676614
   29      H       2.0347333431    -0.7138275033     1.3748518354
   30      H      -0.9358497221    -3.8591378943    -0.9517079891
   31      H      -4.4444377918    -0.0677266912    -0.8486733501
   32      H      -5.6039325181     3.0140441636     1.0771437194
   33      H      -6.4578128913     0.7315528439    -0.7734805755
   34      H      -7.5065652723     2.0215151598    -0.0208639131
   35      H      -3.3442090371     3.2582727750     1.6081957243
   36      H      -1.0282344122     2.5424345094     1.5359254388
   37      H       1.4947767761     1.3743213500     1.2802406733
   38      H       0.5761271126     2.4241808553     0.1906151388
   39      H       1.5187948767     1.3225301694    -1.7785005097
   40      H       2.4998548048     0.2648187464    -0.7690524491
   41      H       2.6969858860     3.3099862582    -0.7201377686
   42      H       3.7017838949     2.2649868405    -1.7233778398
   43      H       4.5681578436     1.1301429295     0.3119224889
   44      H       3.5761907171     2.1846031042     1.3211647539
   45      H       5.7809393252     3.0750943254     1.3466573428
   46      H       4.7914906558     4.1713242161     0.3843296984
   47      H       6.6474419632     2.0328778018    -0.7668208080
   48      H       7.0379485426     3.7475934406    -0.6320347795
   49      H       5.7438349800     3.2248723530    -1.7032814743
 ----------------------------------------------------------------

    9   -1306.3071268615      3.30e-06  Convergence criterion met
 Total energy in the final basis set =    -1306.3071268615

                    Orbital Energies (a.u.)
 --------------------------------------------------------------

 Alpha MOs
 -- Occupied --
-88.8856 -14.3674 -10.2345 -10.2339 -10.2255 -10.2173 -10.2166 -10.1916
-10.1908 -10.1905 -10.1903 -10.1895 -10.1891 -10.1879 -10.1876 -10.1875
-10.1868 -10.1830 -10.1823 -10.1806 -10.1800 -10.1758 -10.1748 -10.1717
 -7.9467  -5.9118  -5.9081  -5.9015  -0.9790  -0.8699  -0.8661  -0.8197
 -0.8101  -0.7971  -0.7773  -0.7694  -0.7565  -0.7339  -0.7263  -0.7098
 -0.6809  -0.6642  -0.6417  -0.6179  -0.6106  -0.5929  -0.5905  -0.5703
 -0.5646  -0.5462  -0.5352  -0.5180  -0.4910  -0.4797  -0.4775  -0.4685
 -0.4646  -0.4590  -0.4462  -0.4442  -0.4387  -0.4305  -0.4258  -0.4158
 -0.4144  -0.4120  -0.4025  -0.3922  -0.3911  -0.3788  -0.3738  -0.3732
 -0.3694  -0.3626  -0.3547  -0.3473  -0.3438  -0.3399  -0.3362  -0.3314
 -0.3241  -0.3188  -0.3120  -0.3005  -0.2967  -0.2621  -0.2583  -0.2232
 -0.2176  -0.1773

          Ground-State Mulliken Net Atomic Charges

     Atom                 Charge (a.u.)
  ----------------------------------------
      1 C                    -0.357385
      2 C                    -0.113711
      3 C                     0.199399
      4 C                    -0.204231
      5 C                    -0.164160
      6 C                     0.316040
      7 C                    -0.112643
      8 C                    -0.261581
      9 S                     0.160552
     10 C                    -0.110511
     11 C                    -0.247425
     12 C                     0.200441
     13 C                    -0.117019
     14 C                    -0.355789
     15 C                    -0.216510
     16 C                    -0.167168
     17 C                     0.313728
     18 N                    -0.582615
     19 C                    -0.157356
     20 C                    -0.273355
     21 C                    -0.262072
     22 C                    -0.256754
     23 C                    -0.249666
     24 C                    -0.445925
     25 H                     0.142759
     26 H                     0.139125
     27 H                     0.127121
     28 H                     0.127631
     29 H                     0.133736
     30 H                     0.141736
     31 H                     0.141178
     32 H                     0.124291
     33 H                     0.142028
     34 H                     0.142128
     35 H                     0.127972
     36 H                     0.134314
     37 H                     0.147995
     38 H                     0.160128
     39 H                     0.150412
     40 H                     0.154715
     41 H                     0.127710
     42 H                     0.142377
     43 H                     0.130456
     44 H                     0.128795
     45 H                     0.131377
     46 H                     0.131006
     47 H                     0.142984
     48 H                     0.145053
     49 H                     0.148689
  ----------------------------------------
  Sum of atomic charges =     0.000000

                    Cartesian Multipole Moments
 -----------------------------------------------------------------
    Charge (ESU x 10^10)
                 0.0000
    Dipole Moment (Debye)
         X       1.9001      Y       1.5832      Z       1.0116
       Tot       2.6722
    Quadrupole Moments (Debye-Ang)
        XX    -144.8242     XY      -0.5460     YY    -143.1961
        XZ       2.6437     YZ       3.9879     ZZ    -153.5394

 Total job time:  134.75s(wall), 134.40s(cpu)
        *  Thank you very much for using Q-Chem.  Have a nice day.  *
