 Q-Chem 5.4, Q-Chem, Inc., Pleasanton, CA (2021)
 Q-Chem 5.4.2 for Intel X86 EM64T Linux

User input:
--------------------------------------------------------------
$molecule
0 1
C           -4.48346399330000        0.38684335140000       -0.11533077160000
C           -3.30396972750000        0.71415696150000        0.39271904110000
C           -2.05865694910000       -0.00878506180000        0.12138913360000
C           -2.08586088960000       -1.39538259970000       -0.00208399180000
C           -0.92612275370000       -2.10630736420000       -0.24157905640000
C            0.27306821960000       -1.43549095940000       -0.37120467340000
C            0.32604092690000       -0.04615733550000       -0.25819091030000
C            1.61316117200000        0.62932274650000       -0.45275224500000
C            2.77478621290000        0.18996913300000       -0.00220444350000
F            2.98948439890000       -0.88592224990000        0.74675606610000
F            3.93722498940000        0.80397075010000       -0.22547568510000
C           -0.84218348000000        0.67893124400000        0.00144362190000
C           -0.82752058310000        2.17056442480000        0.16909941730000
H           -5.37531041290000        0.94158709990000        0.12155973620000
H           -4.60210657460000       -0.43457872530000       -0.80226620880000
H           -3.22881707200000        1.56823895290000        1.05236301630000
H           -3.02437986720000       -1.91572126780000        0.11432258510000
H           -0.95574887420000       -3.18181552290000       -0.32939986170000
H            1.17727792750000       -1.98665799110000       -0.57733330410000
H            1.64218505110000        1.54166077170000       -1.02871757820000
H            0.16005891930000        2.59046836230000        0.01315228490000
H           -1.14034224800000        2.43385401720000        1.17963543620000
H           -1.52233323290000        2.63724803980000       -0.52792669100000
$end

$rem
BASIS = 6-31G*
GUI = 2
METHOD = B3LYP
PRINT_ORBITALS false
MOLDEN_FORMAT false
$end
--------------------------------------------------------------

             Standard Nuclear Orientation (Angstroms)
    I     Atom           X                Y                Z
 ----------------------------------------------------------------
    1      C      -4.3601580923    -0.3290517962     0.1386731951
    2      C      -3.1851206573    -0.6828010010    -0.3619305015
    3      C      -1.9336623978     0.0405231199    -0.1216734628
    4      C      -1.9506650113     1.4308192851    -0.0480128688
    5      C      -0.7849960697     2.1416009297     0.1611995184
    6      C       0.4100149774     1.4673407704     0.3101232398
    7      C       0.4528102923     0.0745022927     0.2469119029
    8      C       1.7359876451    -0.6027131191     0.4605497894
    9      C       2.8987512015    -0.1881166465    -0.0100756792
   10      F       3.1178117463     0.8586240061    -0.7980641994
   11      F       4.0578009987    -0.8019748558     0.2305352278
   12      C      -0.7215280606    -0.6510964730     0.0181157767
   13      C      -0.7179849329    -2.1478552493    -0.0958738031
   14      H      -5.2568427068    -0.8855734163    -0.0746063487
   15      H      -4.4701780870     0.5173363389     0.7961025150
   16      H      -3.1187026660    -1.5605369454    -0.9907408115
   17      H      -2.8860079828     1.9533190373    -0.1793453730
   18      H      -0.8067426601     3.2197531483     0.2104222737
   19      H       1.3189083956     2.0190951308     0.4927408328
   20      H       1.7610571141    -1.4939606536     1.0688165704
   21      H       0.2672841850    -2.5689172855     0.0711699797
   22      H      -1.0368756371    -2.4450312673    -1.0950519564
   23      H      -1.4131080268    -2.5842391157     0.6202104209
 ----------------------------------------------------------------

    9    -624.8244582554      4.79e-06  Convergence criterion met
 Total energy in the final basis set =     -624.8244582554

                    Orbital Energies (a.u.)
 --------------------------------------------------------------

 Alpha MOs
 -- Occupied --
-24.7373 -24.7312 -10.3527 -10.2005 -10.1987 -10.1970 -10.1917 -10.1902
-10.1845 -10.1838 -10.1832 -10.1829 -10.1811  -1.2800  -1.2198  -0.8719
 -0.8135  -0.7866  -0.7660  -0.7219  -0.6884  -0.6424  -0.6205  -0.5887
 -0.5670  -0.5621  -0.5170  -0.5146  -0.4962  -0.4794  -0.4577  -0.4386
 -0.4367  -0.4327  -0.4297  -0.4159  -0.4111  -0.4052  -0.3944  -0.3738
 -0.3593  -0.3424  -0.3348  -0.2988  -0.2740  -0.2302  -0.2221

          Ground-State Mulliken Net Atomic Charges

     Atom                 Charge (a.u.)
  ----------------------------------------
      1 C                    -0.336555
      2 C                    -0.129892
      3 C                     0.095838
      4 C                    -0.177514
      5 C                    -0.134914
      6 C                    -0.170957
      7 C                     0.113060
      8 C                    -0.333401
      9 C                     0.556948
     10 F                    -0.237411
     11 F                    -0.249880
     12 C                     0.066048
     13 C                    -0.533425
     14 H                     0.142586
     15 H                     0.145529
     16 H                     0.133359
     17 H                     0.129066
     18 H                     0.128695
     19 H                     0.131360
     20 H                     0.168804
     21 H                     0.155827
     22 H                     0.167447
     23 H                     0.169382
  ----------------------------------------
  Sum of atomic charges =     0.000000

                    Cartesian Multipole Moments
 -----------------------------------------------------------------
    Charge (ESU x 10^10)
                 0.0000
    Dipole Moment (Debye)
         X      -1.1573      Y      -0.5575      Z       0.3076
       Tot       1.3209
    Quadrupole Moments (Debye-Ang)
        XX     -74.3816     XY       0.2529     YY     -68.5833
        XZ       1.2979     YZ       1.2965     ZZ     -75.6771

 Total job time:  50.69s(wall), 49.24s(cpu)
        *  Thank you very much for using Q-Chem.  Have a nice day.  *
