 Q-Chem 5.2, Q-Chem, Inc., Pleasanton, CA (2019)
 Q-Chem 5.2.1 for Intel X86 EM64T Linux

User input:
--------------------------------------------------------------
$molecule
0 1
C        -4.43364798620000    0.14308388270000   -0.01830801050000
C        -3.24705038530000    0.72732533810000   -0.13722921350000
C        -1.94570314550000    0.08307090040000   -0.02145199450000
C        -1.78223917870000   -1.28716693210000    0.19745435950000
C        -0.52483934140000   -1.84437956510000    0.27649044770000
C         0.63020823610000   -1.07006951760000    0.15015681100000
C         1.92660525190000   -1.74647292710000    0.12577564120000
C         2.95954469940000   -1.37877984230000   -0.62255465610000
C         0.47466533000000    0.31434716860000   -0.01956863860000
C         1.61284240880000    1.28213038680000   -0.03369203460000
O         1.69496243570000    2.19510959400000   -0.80657289190000
O         2.52397881020000    1.12675138910000    0.94954456510000
C        -0.79544042930000    0.86347152830000   -0.12540509470000
H        -5.34498830010000    0.70627763130000   -0.12133071320000
H        -4.55178780680000   -0.90743568810000    0.18520369640000
H        -3.20234479370000    1.79004872210000   -0.33992003380000
H        -2.64645788310000   -1.92520544920000    0.29472627060000
H        -0.42146714850000   -2.91092219610000    0.41760077630000
H         1.98302886250000   -2.65401795950000    0.71513390610000
H         2.92381549840000   -0.51377704620000   -1.26429141310000
H         3.87758336140000   -1.94061769740000   -0.63025369780000
H         2.36277204070000    0.33035190740000    1.47289881600000
H        -0.87706670810000    1.92999087690000   -0.27829497470000
$end

$rem
BASIS = 6-31G*
GUI = 2
METHOD = B3LYP
PRINT_ORBITALS false
MOLDEN_FORMAT false
--------------------------------------------------------------

             Standard Nuclear Orientation (Angstroms)
    I     Atom           X                Y                Z
 ----------------------------------------------------------------
    1      C       4.4024777261     0.1681749071     0.0183261123
    2      C       3.2168557520     0.7623558567     0.0872008594
    3      C       1.9144087325     0.1134770296     0.0196670712
    4      C       1.7485238816    -1.2695207396    -0.0898389310
    5      C       0.4901212908    -1.8287940503    -0.1275649962
    6      C      -0.6635580377    -1.0446201706    -0.0663565231
    7      C      -1.9614716435    -1.7143914536     0.0083959794
    8      C      -2.9954640784    -1.2862372516     0.7223315258
    9      C      -0.5054416885     0.3486094963    -0.0070252466
   10      C      -1.6415540897     1.3166705406    -0.0730352209
   11      O      -1.7236135053     2.2884701276     0.6244541096
   12      O      -2.5505857359     1.0852529303    -1.0431763146
   13      C       0.7655828618     0.9019300809     0.0580937288
   14      H       5.3147761773     0.7359988484     0.0785718683
   15      H       4.5188486153    -0.8954465013    -0.1005549894
   16      H       3.1739471276     1.8379330359     0.2044856883
   17      H       2.6115986933    -1.9149717504    -0.1337001330
   18      H       0.3847921057    -2.9029831932    -0.1835521983
   19      H      -2.0183980334    -2.6658846531    -0.5069532727
   20      H      -2.9594537801    -0.3729384036     1.2932263945
   21      H      -3.9147322188    -1.8438771945     0.7723296840
   22      H      -2.3898060156     0.2493829863    -1.5010089775
   23      H       0.8491370165     1.9770768896     0.1257674223
 ----------------------------------------------------------------

    9    -575.6011304431      6.16e-06  Convergence criterion met
 Total energy in the final basis set =     -575.6011304431

                    Orbital Energies (a.u.)
 --------------------------------------------------------------

 Alpha MOs
 -- Occupied --
-19.1876 -19.1305 -10.3166 -10.2173 -10.2124 -10.2097 -10.2076 -10.2048
-10.2038 -10.2032 -10.1997 -10.1983 -10.1901  -1.0990  -1.0179  -0.8859
 -0.8254  -0.7833  -0.7741  -0.7325  -0.6655  -0.6335  -0.6148  -0.5903
 -0.5886  -0.5221  -0.5101  -0.4985  -0.4696  -0.4595  -0.4458  -0.4428
 -0.4342  -0.4185  -0.4047  -0.3982  -0.3895  -0.3693  -0.3622  -0.3520
 -0.3304  -0.3113  -0.2849  -0.2780  -0.2598  -0.2282

          Ground-State Mulliken Net Atomic Charges

     Atom                 Charge (a.u.)
  ----------------------------------------
      1 C                    -0.351337
      2 C                    -0.110300
      3 C                     0.178481
      4 C                    -0.170903
      5 C                    -0.192916
      6 C                     0.124504
      7 C                    -0.188221
      8 C                    -0.323096
      9 C                     0.006484
     10 C                     0.510798
     11 O                    -0.444002
     12 O                    -0.561213
     13 C                    -0.237202
     14 H                     0.151250
     15 H                     0.144902
     16 H                     0.137461
     17 H                     0.135263
     18 H                     0.136245
     19 H                     0.141628
     20 H                     0.179947
     21 H                     0.156358
     22 H                     0.414264
     23 H                     0.161601
  ----------------------------------------
  Sum of atomic charges =     0.000000

                    Cartesian Multipole Moments
 -----------------------------------------------------------------
    Charge (ESU x 10^10)
                 0.0000
    Dipole Moment (Debye)
         X       1.7981      Y      -3.9132      Z      -1.3935
       Tot       4.5264
    Quadrupole Moments (Debye-Ang)
        XX     -69.9502     XY       9.6145     YY     -76.1937
        XZ       1.2733     YZ       0.0272     ZZ     -76.6195

 Total job time:  32.09s(wall), 31.98s(cpu)
        *  Thank you very much for using Q-Chem.  Have a nice day.  *
