 Q-Chem 5.2, Q-Chem, Inc., Pleasanton, CA (2019)
 Q-Chem 5.2.1 for Intel X86 EM64T Linux

User input:
--------------------------------------------------------------
$molecule
0 1
F         2.18943805150000    5.55933402840000   -0.50509212880000
C         2.07779367600000    4.23294064180000   -0.41496818900000
F         0.79115530680000    3.90726338020000   -0.49631266550000
C         3.12022978740000    3.42735547750000   -0.27426085340000
C         3.13939963880000    1.97792846890000   -0.16860273660000
C         4.39590227350000    1.34729239120000   -0.13058998750000
C         4.51848636660000   -0.01925454690000   -0.01929504030000
C         1.97616010060000    1.21455308060000   -0.10041199940000
C         2.09855702850000   -0.16158347040000   -0.01095118560000
C         3.36517871060000   -0.79157248550000    0.04507262440000
C         3.11659039800000   -2.19669240350000    0.17993491110000
C         3.94318767750000   -3.31033192190000    0.26712478370000
C         3.36207080700000   -4.55751290320000    0.36941786910000
C         1.97590690800000   -4.70466322730000    0.37102529660000
C         1.13324042320000   -3.61350033070000    0.28576267860000
C         1.71077473200000   -2.35401854040000    0.20577901510000
N         1.11002947010000   -1.11730599710000    0.08931537330000
C        -0.27202957250000   -0.87249994430000    0.08055517800000
C        -0.84277062560000   -0.10155940520000   -0.92761548730000
C        -2.20207404020000    0.13836721110000   -0.92966607980000
C        -3.02316009930000   -0.38554162750000    0.06666031070000
C        -4.47096813870000   -0.13045937450000    0.05918607050000
C        -5.19475452250000   -0.18386374480000   -1.12978379030000
C        -6.55688414810000    0.05169292900000   -1.13517499920000
C        -7.21683801740000    0.35072157560000    0.04500893720000
C        -6.50630168850000    0.41006989070000    1.23217862900000
C        -5.14524912960000    0.16838261030000    1.24085622840000
C        -2.44160635700000   -1.15748266750000    1.07033907990000
C        -1.08254327740000   -1.39865979670000    1.08190276900000
H         4.07864431320000    3.92544853460000   -0.24390922830000
H         5.28426649130000    1.95874618860000   -0.18533992160000
H         5.49144901990000   -0.48461692670000    0.02131781210000
H         1.00289678090000    1.67565225250000   -0.10080204130000
H         5.01653189710000   -3.19634446580000    0.25058500180000
H         3.98543176870000   -5.43627179290000    0.44054548900000
H         1.55096344200000   -5.69538275540000    0.43664894190000
H         0.06120526240000   -3.73922650800000    0.27031764880000
H        -0.21805731740000    0.29824910160000   -1.71223399620000
H        -2.63231057150000    0.75228241650000   -1.70677576400000
H        -4.68790690230000   -0.43282602920000   -2.05087252490000
H        -7.10689154120000    0.00026069750000   -2.06361527280000
H        -8.28054641690000    0.53713044440000    0.03951610210000
H        -7.01516560990000    0.64783026020000    2.15504432580000
H        -4.59301767060000    0.23321389710000    2.16718211950000
H        -3.06419131560000   -1.58263598210000    1.84373761750000
H        -0.63905503630000   -1.98548008520000    1.87263770460000
$end

$rem
BASIS = 6-31G*
GUI = 2
METHOD = B3LYP
PRINT_ORBITALS false
MOLDEN_FORMAT false
--------------------------------------------------------------

             Standard Nuclear Orientation (Angstroms)
    I     Atom           X                Y                Z
 ----------------------------------------------------------------
    1      F      -2.1351079801    -5.6713339647     0.1198531558
    2      C      -2.0452003502    -4.3413501108     0.0653942401
    3      F      -0.7650223489    -4.0058963937    -0.0639733927
    4      C      -3.0998934509    -3.5419942866     0.1293613178
    5      C      -3.1427286635    -2.0901184330     0.0784552804
    6      C      -4.4093705479    -1.4791573045     0.0614100803
    7      C      -4.5541468323    -0.1107063497     0.0261145994
    8      C      -1.9920572262    -1.3054101251     0.0518790102
    9      C      -2.1369978746     0.0702206538    -0.0061573633
   10      C      -3.4135902127     0.6823205170    -0.0051220801
   11      C      -3.1877117314     2.0975693198    -0.0250144741
   12      C      -4.0322927101     3.2008065306    -0.0496871408
   13      C      -3.4715489541     4.4608414644    -0.0884104966
   14      C      -2.0881181056     4.6293676179    -0.1171190269
   15      C      -1.2278353748     3.5489368594    -0.0931193438
   16      C      -1.7845956295     2.2791383996    -0.0309298373
   17      N      -1.1639915788     1.0468064283    -0.0197455156
   18      C       0.2218931812     0.8245300288    -0.0164934175
   19      C       0.7968860803    -0.0414876545    -0.9416416722
   20      C       2.1599946141    -0.2585523261    -0.9320077490
   21      C       2.9806638462     0.3827994529    -0.0065354527
   22      C       4.4324710962     0.1514941866    -0.0015835264
   23      C       5.1449366417     0.0878371462    -1.1968695648
   24      C       6.5107678643    -0.1251990302    -1.1910568687
   25      C       7.1858816394    -0.2846077287     0.0075263042
   26      C       6.4867489879    -0.2268423346     1.2015249094
   27      C       5.1219190852    -0.0073404072     1.1983076316
   28      C       2.3948043966     1.2491548275     0.9141522610
   29      C       1.0319972279     1.4684927023     0.9138383312
   30      H      -4.0494239338    -4.0491085927     0.2231870099
   31      H      -5.2876768662    -2.1070215984     0.0821157524
   32      H      -5.5344745456     0.3407638015     0.0265021387
   33      H      -1.0111533024    -1.7482982682     0.0910156020
   34      H      -5.1036521856     3.0686173471    -0.0426577636
   35      H      -4.1090857344     5.3321033831    -0.1058671864
   36      H      -1.6794869541     5.6280269441    -0.1630399109
   37      H      -0.1582604631     3.6893232185    -0.1331965808
   38      H       0.1722803782    -0.5335111619    -1.6720664453
   39      H       2.5938438042    -0.9457912801    -1.6429031800
   40      H       4.6259915291     0.2278693872    -2.1340825223
   41      H       7.0517727940    -0.1654773202    -2.1253191841
   42      H       8.2525112838    -0.4535537119     0.0110552082
   43      H       7.0075354182    -0.3555156466     2.1392766095
   44      H       4.5788994566     0.0193552055     2.1319346255
   45      H       3.0167552331     1.7651276115     1.6307148283
   46      H       0.5854761183     2.1300572151     1.6413360311
 ----------------------------------------------------------------

    9   -1255.4435165623      4.45e-06  Convergence criterion met
 Total energy in the final basis set =    -1255.4435165623

                    Orbital Energies (a.u.)
 --------------------------------------------------------------

 Alpha MOs
 -- Occupied --
-24.7408 -24.7299 -14.3830 -10.3518 -10.2366 -10.2223 -10.2212 -10.2025
-10.2019 -10.1993 -10.1982 -10.1976 -10.1974 -10.1964 -10.1962 -10.1900
-10.1899 -10.1892 -10.1891 -10.1887 -10.1874 -10.1852 -10.1848 -10.1846
-10.1843 -10.1842 -10.1835 -10.1818 -10.1776  -1.2807  -1.2199  -1.0030
 -0.8830  -0.8650  -0.8560  -0.8451  -0.8114  -0.7875  -0.7663  -0.7642
 -0.7535  -0.7490  -0.7426  -0.7157  -0.7111  -0.6593  -0.6398  -0.6336
 -0.6189  -0.6114  -0.5994  -0.5959  -0.5793  -0.5790  -0.5668  -0.5429
 -0.5310  -0.5286  -0.5147  -0.5093  -0.4976  -0.4835  -0.4806  -0.4620
 -0.4572  -0.4489  -0.4486  -0.4438  -0.4397  -0.4371  -0.4369  -0.4356
 -0.4324  -0.4247  -0.4229  -0.4199  -0.4125  -0.4030  -0.3894  -0.3851
 -0.3734  -0.3658  -0.3653  -0.3627  -0.3612  -0.3449  -0.3426  -0.3392
 -0.3357  -0.3315  -0.3027  -0.2785  -0.2641  -0.2551  -0.2550  -0.2534
 -0.2357  -0.2007  -0.1971

          Ground-State Mulliken Net Atomic Charges

     Atom                 Charge (a.u.)
  ----------------------------------------
      1 F                    -0.251607
      2 C                     0.542420
      3 F                    -0.236959
      4 C                    -0.303862
      5 C                     0.196782
      6 C                    -0.218254
      7 C                    -0.195289
      8 C                    -0.261453
      9 C                     0.319795
     10 C                     0.066557
     11 C                     0.057115
     12 C                    -0.193895
     13 C                    -0.145569
     14 C                    -0.138455
     15 C                    -0.178074
     16 C                     0.314975
     17 N                    -0.737734
     18 C                     0.283757
     19 C                    -0.160555
     20 C                    -0.186311
     21 C                     0.097084
     22 C                     0.084208
     23 C                    -0.169727
     24 C                    -0.132850
     25 C                    -0.123453
     26 C                    -0.133017
     27 C                    -0.169856
     28 C                    -0.186901
     29 C                    -0.161085
     30 H                     0.158753
     31 H                     0.121653
     32 H                     0.131483
     33 H                     0.151692
     34 H                     0.128519
     35 H                     0.122008
     36 H                     0.125497
     37 H                     0.139816
     38 H                     0.153879
     39 H                     0.141016
     40 H                     0.131994
     41 H                     0.130773
     42 H                     0.129629
     43 H                     0.130808
     44 H                     0.132311
     45 H                     0.139601
     46 H                     0.152781
  ----------------------------------------
  Sum of atomic charges =     0.000000

                    Cartesian Multipole Moments
 -----------------------------------------------------------------
    Charge (ESU x 10^10)
                 0.0000
    Dipole Moment (Debye)
         X       1.1429      Y       0.7421      Z       0.0305
       Tot       1.3630
    Quadrupole Moments (Debye-Ang)
        XX    -142.9062     XY       0.6892     YY    -164.3940
        XZ       0.1799     YZ       2.5064     ZZ    -160.1955

 Total job time:  165.11s(wall), 164.59s(cpu)
        *  Thank you very much for using Q-Chem.  Have a nice day.  *
