 Q-Chem 5.2, Q-Chem, Inc., Pleasanton, CA (2019)
 Q-Chem 5.2.1 for Intel X86 EM64T Linux

User input:
--------------------------------------------------------------
$molecule
0 1
C         3.12088442110000   -5.84892933880000   -0.57275499940000
O         2.08216515520000   -5.33971848430000    0.22638154840000
C         1.77270491810000   -4.01577258570000    0.12506836950000
C         2.41401722440000   -3.10501069100000   -0.70687257690000
C         2.01046313370000   -1.78195878710000   -0.73043216650000
C         0.97032171130000   -1.33611807010000    0.07744354660000
N         0.58100408010000    0.01294600310000    0.05805397840000
C        -0.76011396240000    0.36248673840000    0.11831022530000
C        -1.74453846650000   -0.47229938880000   -0.42067469110000
C        -3.07587085890000   -0.12822520570000   -0.36039225980000
C        -3.48310704490000    1.06717368560000    0.23941920290000
C        -4.86642620710000    1.49052731470000    0.33612647620000
C        -5.95611589240000    0.86496013930000   -0.08671264560000
F        -6.04274262680000   -0.30929269320000   -0.70571444890000
F        -7.18626604140000    1.36235997940000    0.06320208410000
C        -2.49482529040000    1.89930857250000    0.77504554460000
C        -1.16309286520000    1.55914391120000    0.71980957220000
C         1.57467676060000    1.00149862550000   -0.02299370790000
C         1.39826168350000    2.12791043680000   -0.82827612050000
C         2.37942923250000    3.08965472940000   -0.90694381420000
C         3.57251733600000    2.95263267470000   -0.19448134010000
O         4.47715189080000    3.96118983330000   -0.34882024170000
C         5.69587818300000    3.88143301930000    0.34774795940000
C         3.75607892700000    1.82708155350000    0.60067924130000
C         2.76332466470000    0.86738221660000    0.68601115830000
C         0.33522701500000   -2.25129346720000    0.91848525080000
C         0.72715119630000   -3.57031630210000    0.93641584800000
H         3.18670067490000   -6.90848175430000   -0.33054308990000
H         4.07760382200000   -5.36688950990000   -0.34563971570000
H         2.90125612460000   -5.73562569560000   -1.63949344230000
H         3.22465656070000   -3.41122232070000   -1.34893251050000
H         2.51094504600000   -1.08375446190000   -1.38504481050000
H        -1.45112908580000   -1.39479794240000   -0.89883335820000
H        -3.80366290120000   -0.79398866920000   -0.79417340160000
H        -5.04594209840000    2.44197995010000    0.81632139100000
H        -2.78365602270000    2.82517042420000    1.25105082490000
H        -0.42009522400000    2.21332880520000    1.15092754950000
H         0.48521354660000    2.24038791230000   -1.39352749990000
H         2.25060015110000    3.96252905900000   -1.52684851160000
H         6.24866057460000    4.78004871430000    0.07835393320000
H         6.27335498110000    2.99988276210000    0.05014112250000
H         5.54034710580000    3.86481811680000    1.43152984660000
H         4.66346330390000    1.68602028380000    1.16627621050000
H         2.91319340560000   -0.00027870120000    1.31143957010000
H        -0.46753684430000   -1.91786938160000    1.55892418870000
H         0.24106721040000   -4.28341291710000    1.58288735320000
$end

$rem
BASIS = 6-31G*
GUI = 2
METHOD = B3LYP
PRINT_ORBITALS false
MOLDEN_FORMAT false
--------------------------------------------------------------

             Standard Nuclear Orientation (Angstroms)
    I     Atom           X                Y                Z
 ----------------------------------------------------------------
    1      C      -3.4458982132     5.5953914838    -0.5070712348
    2      O      -2.3686457694     5.1586999965     0.2839283525
    3      C      -1.9595189881     3.8633165676     0.1679120182
    4      C      -2.5323992295     2.9148860449    -0.6718392629
    5      C      -2.0292537689     1.6267714657    -0.7103460821
    6      C      -0.9553836233     1.2532810429     0.0900532594
    7      N      -0.4644360238    -0.0618969899     0.0554809639
    8      C       0.8996229986    -0.3087514339     0.1085187976
    9      C       1.8156938746     0.6041579416    -0.4242802684
   10      C       3.1695791798     0.3620073612    -0.3711330126
   11      C       3.6688085489    -0.8049473357     0.2150242903
   12      C       5.0806973061    -1.1225517363     0.3036249589
   13      C       6.1180733230    -0.4114055803    -0.1155086338
   14      F       6.1128130266     0.7723226312    -0.7223834057
   15      F       7.3830666163    -0.8150626174     0.0259246745
   16      C       2.7486780331    -1.7154730116     0.7445029977
   17      C       1.3947092092    -1.4773026422     0.6963619460
   18      C      -1.3801387032    -1.1224610145    -0.0333050900
   19      C      -1.1211460101    -2.2238190559    -0.8508250357
   20      C      -2.0264152806    -3.2567250507    -0.9369830497
   21      C      -3.2240206043    -3.2183988228    -0.2199686622
   22      O      -4.0496718281    -4.2913664580    -0.3824870517
   23      C      -5.2685302278    -4.3119277051     0.3181010013
   24      C      -3.4901081655    -2.1183400393     0.5874399191
   25      C      -2.5731071762    -1.0866577534     0.6802096613
   26      C      -0.3890079990     2.2055444848     0.9389675180
   27      C      -0.8802696903     3.4905865401     0.9717726383
   28      H      -3.5914537264     6.6442989858    -0.2535828636
   29      H      -4.3623046630     5.0394949969    -0.2824959125
   30      H      -3.2219405660     5.5101159188    -1.5755169564
   31      H      -3.3662232143     3.1649610302    -1.3085045738
   32      H      -2.4773066783     0.8991882415    -1.3709218765
   33      H       1.4511793155     1.5064531931    -0.8919561950
   34      H       3.8430110205     1.0857460424    -0.7998289449
   35      H       5.3338644086    -2.0624211858     0.7733345128
   36      H       3.1088762547    -2.6214486473     1.2100024885
   37      H       0.7052243737    -2.1906292739     1.1225565715
   38      H      -0.2041291322    -2.2605385042    -1.4196386540
   39      H      -1.8335583657    -4.1108278268    -1.5663502077
   40      H      -5.7521307387    -5.2472685574     0.0407569603
   41      H      -5.9125421810    -3.4739735722     0.0312881476
   42      H      -5.1109935536    -4.2946209569     1.4015823453
   43      H      -4.4036553887    -2.0526931838     1.1568840184
   44      H      -2.7865260383    -0.2394140043     1.3151011679
   45      H       0.4390321481     1.9277537935     1.5737472549
   46      H      -0.4477358745     4.2320035019     1.6244021026
 ----------------------------------------------------------------

    9   -1254.6052520808      4.57e-06  Convergence criterion met
 Total energy in the final basis set =    -1254.6052520808

                    Orbital Energies (a.u.)
 --------------------------------------------------------------

 Alpha MOs
 -- Occupied --
-24.7348 -24.7240 -19.1762 -19.1759 -14.3612 -10.3448 -10.2423 -10.2420
-10.2400 -10.2397 -10.2230 -10.2186 -10.2184 -10.1943 -10.1926 -10.1866
-10.1864 -10.1857 -10.1855 -10.1855 -10.1853 -10.1845 -10.1827 -10.1824
-10.1817 -10.1792 -10.1790  -1.2744  -1.2140  -1.0662  -1.0660  -0.9748
 -0.8611  -0.8579  -0.8418  -0.7973  -0.7655  -0.7600  -0.7531  -0.7444
 -0.7428  -0.7252  -0.7000  -0.6829  -0.6378  -0.6278  -0.6176  -0.6090
 -0.6020  -0.5957  -0.5715  -0.5620  -0.5428  -0.5400  -0.5308  -0.5204
 -0.5116  -0.5086  -0.4889  -0.4796  -0.4708  -0.4705  -0.4679  -0.4507
 -0.4497  -0.4456  -0.4396  -0.4314  -0.4287  -0.4252  -0.4249  -0.4213
 -0.4154  -0.4138  -0.4103  -0.4015  -0.3846  -0.3819  -0.3799  -0.3759
 -0.3681  -0.3652  -0.3551  -0.3409  -0.3364  -0.3269  -0.3259  -0.3224
 -0.3071  -0.2682  -0.2590  -0.2505  -0.2480  -0.2257  -0.2188  -0.1659

          Ground-State Mulliken Net Atomic Charges

     Atom                 Charge (a.u.)
  ----------------------------------------
      1 C                    -0.213315
      2 O                    -0.506901
      3 C                     0.378854
      4 C                    -0.205431
      5 C                    -0.172578
      6 C                     0.273258
      7 N                    -0.656176
      8 C                     0.306674
      9 C                    -0.181613
     10 C                    -0.205603
     11 C                     0.197352
     12 C                    -0.298468
     13 C                     0.533641
     14 F                    -0.239568
     15 F                    -0.254361
     16 C                    -0.205421
     17 C                    -0.182215
     18 C                     0.272921
     19 C                    -0.165743
     20 C                    -0.184410
     21 C                     0.379185
     22 O                    -0.507165
     23 C                    -0.213402
     24 C                    -0.205881
     25 C                    -0.172658
     26 C                    -0.165984
     27 C                    -0.184381
     28 H                     0.168838
     29 H                     0.148308
     30 H                     0.149893
     31 H                     0.131326
     32 H                     0.146273
     33 H                     0.147785
     34 H                     0.137895
     35 H                     0.155056
     36 H                     0.126367
     37 H                     0.146978
     38 H                     0.149259
     39 H                     0.138437
     40 H                     0.168814
     41 H                     0.148519
     42 H                     0.149713
     43 H                     0.131302
     44 H                     0.146475
     45 H                     0.149371
     46 H                     0.138778
  ----------------------------------------
  Sum of atomic charges =     0.000000

                    Cartesian Multipole Moments
 -----------------------------------------------------------------
    Charge (ESU x 10^10)
                 0.0000
    Dipole Moment (Debye)
         X      -4.1980      Y       0.0433      Z       0.2100
       Tot       4.2035
    Quadrupole Moments (Debye-Ang)
        XX    -143.9041     XY      -3.9571     YY    -143.0563
        XZ       1.1899     YZ      -7.5057     ZZ    -152.5305

 Total job time:  140.64s(wall), 140.28s(cpu)
        *  Thank you very much for using Q-Chem.  Have a nice day.  *
