 Q-Chem 5.2, Q-Chem, Inc., Pleasanton, CA (2019)
 Q-Chem 5.2.1 for Intel X86 EM64T Linux

User input:
--------------------------------------------------------------
$molecule
0 1
C         3.73358019240000    0.35350664350000    0.47511444480000
C         2.86321604280000    1.05635458720000   -0.23545948860000
C         1.40476711270000    0.96248712640000   -0.12311127510000
C         0.69208643450000    2.13388612820000    0.01101720440000
C        -0.69019776980000    2.12657827110000    0.18611392890000
C        -1.40408891310000    0.94855610020000    0.21139225170000
C        -2.86269779340000    1.03296020960000    0.32909830200000
C        -3.73143873480000    0.39948761230000   -0.44577722320000
C        -0.70477570450000   -0.28436271910000    0.08994868250000
C        -1.35889193530000   -1.53054441490000    0.20556169850000
C        -0.68418259500000   -2.70606037150000    0.03562404830000
C         0.68112564020000   -2.69234602030000   -0.28044305350000
C         1.35702509970000   -1.50693693170000   -0.34310885510000
C         0.70429478020000   -0.27573688710000   -0.11443470340000
H         4.79575135800000    0.50170293480000    0.37374627440000
H         3.41944384470000   -0.37862011360000    1.20050676490000
H         3.22154797700000    1.82450849650000   -0.91119745940000
H         1.21722585910000    3.07890163590000    0.00092145450000
H        -1.21437455040000    3.06721203280000    0.28290937150000
H        -3.22225810550000    1.73566352770000    1.07204379300000
H        -3.41545196150000   -0.26274133700000   -1.23477318980000
H        -4.79383213500000    0.53845448920000   -0.33425263700000
H        -2.41074392400000   -1.54409263250000    0.44585691640000
H        -1.20119618550000   -3.64977569550000    0.13183851760000
H         1.19720837620000   -3.62393955880000   -0.46196760120000
H         2.40880235400000   -1.49974339860000   -0.58393604680000
$end

$rem
BASIS = 6-31G*
GUI = 2
METHOD = B3LYP
PRINT_ORBITALS false
MOLDEN_FORMAT false
--------------------------------------------------------------

             Standard Nuclear Orientation (Angstroms)
    I     Atom           X                Y                Z
 ----------------------------------------------------------------
    1      C       3.7360833614     0.3775910697     0.4361352462
    2      C       2.8609635533     1.0469864921    -0.3004239093
    3      C       1.4032828070     0.9576473050    -0.1751567770
    4      C       0.6905527196     2.1336028012    -0.0901608169
    5      C      -0.6906530891     2.1336231448     0.0933940868
    6      C      -1.4035100248     0.9576377114     0.1765147408
    7      C      -2.8614503050     1.0466291971     0.2990271413
    8      C      -3.7343448969     0.3781632867    -0.4409990694
    9      C      -0.7040258196    -0.2792031866     0.1070686548
   10      C      -1.3565179854    -1.5191409716     0.2831694631
   11      C      -0.6819698059    -2.7008555881     0.1628175562
   12      C       0.6814119721    -2.7008958912    -0.1617486148
   13      C       1.3560487136    -1.5192494103    -0.2823249421
   14      C       0.7037895428    -0.2792265290    -0.1059630543
   15      H       4.7975191368     0.5215177941     0.3217480772
   16      H       3.4268345093    -0.3209302768     1.1959499127
   17      H       3.2146777401     1.7837767617    -1.0125407405
   18      H       1.2149243001     3.0774254420    -0.1463828537
   19      H      -1.2149357095     3.0774419458     0.1504583785
   20      H      -3.2170768476     1.7822300522     1.0113927203
   21      H      -3.4225965803    -0.3191199445    -1.2009454754
   22      H      -4.7961541870     0.5215643553    -0.3295251810
   23      H      -2.4069027961    -1.5222352052     0.5301515014
   24      H      -1.1977012814    -3.6394585703     0.3049596561
   25      H       1.1970869564    -3.6395414266    -0.3038152968
   26      H       2.4063603004    -1.5225275150    -0.5295489304
 ----------------------------------------------------------------

    8    -540.6760400645      2.73e-06  Convergence criterion met
 Total energy in the final basis set =     -540.6760400645

                    Orbital Energies (a.u.)
 --------------------------------------------------------------

 Alpha MOs
 -- Occupied --
-10.1934 -10.1933 -10.1930 -10.1927 -10.1903 -10.1903 -10.1843 -10.1837
-10.1819 -10.1814 -10.1799 -10.1799 -10.1791 -10.1791  -0.8789  -0.8257
 -0.8133  -0.7665  -0.7419  -0.7396  -0.7097  -0.6346  -0.6142  -0.6079
 -0.5680  -0.5568  -0.5085  -0.4962  -0.4929  -0.4695  -0.4565  -0.4351
 -0.4325  -0.4180  -0.4103  -0.3984  -0.3902  -0.3831  -0.3631  -0.3605
 -0.3387  -0.3237  -0.3198  -0.2998  -0.2653  -0.2577  -0.2419  -0.1982

          Ground-State Mulliken Net Atomic Charges

     Atom                 Charge (a.u.)
  ----------------------------------------
      1 C                    -0.331215
      2 C                    -0.145685
      3 C                     0.095184
      4 C                    -0.191282
      5 C                    -0.191165
      6 C                     0.095160
      7 C                    -0.145814
      8 C                    -0.331089
      9 C                     0.080593
     10 C                    -0.203273
     11 C                    -0.133352
     12 C                    -0.133345
     13 C                    -0.203348
     14 C                     0.080730
     15 H                     0.142918
     16 H                     0.155363
     17 H                     0.138364
     18 H                     0.126321
     19 H                     0.126314
     20 H                     0.138362
     21 H                     0.155382
     22 H                     0.142927
     23 H                     0.140599
     24 H                     0.125380
     25 H                     0.125379
     26 H                     0.140593
  ----------------------------------------
  Sum of atomic charges =     0.000000

                    Cartesian Multipole Moments
 -----------------------------------------------------------------
    Charge (ESU x 10^10)
                 0.0000
    Dipole Moment (Debye)
         X      -0.0013      Y       0.1901      Z      -0.0010
       Tot       0.1901
    Quadrupole Moments (Debye-Ang)
        XX     -72.6323     XY      -0.0037     YY     -74.4413
        XZ      -1.3803     YZ       0.0008     ZZ     -84.2354

 Total job time:  42.21s(wall), 41.86s(cpu)
        *  Thank you very much for using Q-Chem.  Have a nice day.  *
