 Q-Chem 5.2, Q-Chem, Inc., Pleasanton, CA (2019)
 Q-Chem 5.2.1 for Intel X86 EM64T Linux

User input:
--------------------------------------------------------------
$molecule
0 1
C        -4.04890346110000   -0.23501222290000   -0.01322380940000
C        -3.00586270550000    0.58657498500000    0.03065015440000
C        -1.59306267060000    0.23281548620000    0.04552698250000
C        -0.65122976300000    1.25747702050000    0.11450101820000
C         0.72132620780000    1.03791867610000    0.14944626100000
O         1.47472939970000    2.17654461760000    0.20994108920000
C         2.73754895230000    2.23213387470000   -0.42066720310000
C         1.21323871460000   -0.27755155470000    0.13632850320000
C         2.62911820750000   -0.61731752050000    0.29696391790000
C         3.23544290890000   -1.62467272830000   -0.31572442130000
C         0.28106019040000   -1.30905149600000    0.03126781270000
C        -1.07237492900000   -1.06289121420000   -0.01604100530000
F        -1.88580319320000   -2.14026527300000   -0.10783680960000
H        -5.05320739530000    0.15432975340000   -0.01682540910000
H        -3.95780461240000   -1.30519345620000   -0.04582400290000
H        -3.18216047110000    1.65499585750000    0.06459445940000
H        -0.98476414240000    2.28368807480000    0.14581169280000
H         2.79926387670000    3.20976447860000   -0.90403958860000
H         2.85247065180000    1.45092761190000   -1.17380202540000
H         3.54559347400000    2.15485676910000    0.31170040320000
H         3.18150478610000   -0.00440267400000    0.99629874950000
H         2.72654737040000   -2.24605771640000   -1.03355015290000
H         4.27135845040000   -1.85375353110000   -0.13459375980000
H         0.61926397270000   -2.33346067260000    0.02520090140000
$end

$rem
BASIS = 6-31G*
GUI = 2
METHOD = B3LYP
PRINT_ORBITALS false
MOLDEN_FORMAT false
--------------------------------------------------------------

             Standard Nuclear Orientation (Angstroms)
    I     Atom           X                Y                Z
 ----------------------------------------------------------------
    1      C       4.0783156388     0.4457008255     0.0770555258
    2      C       2.9099847166     1.0762498732     0.0293560779
    3      C       1.5797835895     0.4849969847    -0.0191828242
    4      C       0.4764860999     1.3335210342    -0.0861118178
    5      C      -0.8369208167     0.8818087317    -0.1513436869
    6      O      -1.7744246539     1.8748131780    -0.2040101218
    7      C      -3.0374268821     1.6980611506     0.4034882722
    8      C      -1.0946836469    -0.4986611830    -0.1730935375
    9      C      -2.4280953900    -1.0733999277    -0.3671241665
   10      C      -2.8608898554    -2.1835500387     0.2142851909
   11      C      -0.0002686732    -1.3563895956    -0.0704070525
   12      C       1.2895278021    -0.8820474369     0.0073373979
   13      F       2.2751035975    -1.8050980328     0.0936207809
   14      H       5.0002280192     1.0019305607     0.1072645095
   15      H       4.1726990454    -0.6246447333     0.0871452402
   16      H       2.8998371619     2.1595578901     0.0195048600
   17      H       0.6284401035     2.4022675417    -0.0911667111
   18      H      -3.2742660280     2.6394047778     0.9044858639
   19      H      -3.0274087106     0.8920717578     1.1390037496
   20      H      -3.8086958536     1.4992575431    -0.3454385001
   21      H      -3.0671340470    -0.5492208085    -1.0647849680
   22      H      -2.2635076792    -2.7239711478     0.9294406382
   23      H      -3.8388575876    -2.5834187941     0.0091232227
   24      H      -0.1567450654    -2.4236002234    -0.0906402344
 ----------------------------------------------------------------

    8    -600.7906374969      9.80e-06  Convergence criterion met
 Total energy in the final basis set =     -600.7906374969

                    Orbital Energies (a.u.)
 --------------------------------------------------------------

 Alpha MOs
 -- Occupied --
-24.7028 -19.1737 -10.2641 -10.2481 -10.2381 -10.2030 -10.2028 -10.1987
-10.1918 -10.1915 -10.1882 -10.1862 -10.1766  -1.2134  -1.0631  -0.8705
 -0.8139  -0.7751  -0.7583  -0.7244  -0.6942  -0.6389  -0.6182  -0.5784
 -0.5710  -0.5283  -0.5226  -0.4990  -0.4754  -0.4665  -0.4559  -0.4494
 -0.4419  -0.4365  -0.4319  -0.4086  -0.3904  -0.3862  -0.3749  -0.3613
 -0.3457  -0.3339  -0.3213  -0.2975  -0.2687  -0.2315  -0.2096

          Ground-State Mulliken Net Atomic Charges

     Atom                 Charge (a.u.)
  ----------------------------------------
      1 C                    -0.357855
      2 C                    -0.110617
      3 C                     0.134205
      4 C                    -0.276106
      5 C                     0.310631
      6 O                    -0.518844
      7 C                    -0.218138
      8 C                     0.121520
      9 C                    -0.134116
     10 C                    -0.339538
     11 C                    -0.271653
     12 C                     0.317340
     13 F                    -0.297190
     14 H                     0.140012
     15 H                     0.162563
     16 H                     0.131214
     17 H                     0.143083
     18 H                     0.160679
     19 H                     0.166781
     20 H                     0.150319
     21 H                     0.145920
     22 H                     0.148518
     23 H                     0.145678
     24 H                     0.145597
  ----------------------------------------
  Sum of atomic charges =     0.000000

                    Cartesian Multipole Moments
 -----------------------------------------------------------------
    Charge (ESU x 10^10)
                 0.0000
    Dipole Moment (Debye)
         X      -2.0074      Y       0.2975      Z       0.5554
       Tot       2.1039
    Quadrupole Moments (Debye-Ang)
        XX     -66.2097     XY       2.6936     YY     -72.8644
        XZ      -0.8762     YZ       0.6617     ZZ     -77.3420

 Total job time:  30.17s(wall), 29.11s(cpu)
        *  Thank you very much for using Q-Chem.  Have a nice day.  *
