 Q-Chem 5.2, Q-Chem, Inc., Pleasanton, CA (2019)
 Q-Chem 5.2.1 for Intel X86 EM64T Linux

User input:
--------------------------------------------------------------
$molecule
0 1
C         2.35173356140000   -3.25034730870000    0.20002592600000
C         1.09808564010000   -2.83795097480000    0.04919792450000
C         0.60011362900000   -1.46981425160000   -0.00509568690000
C        -0.77344917460000   -1.26016266720000    0.02577622180000
C        -1.35606167990000    0.00522751290000    0.00472858000000
C        -2.82402013330000    0.17320366610000    0.03432575480000
O        -3.38339851060000    1.20754008600000    0.32558744910000
O        -3.57279190170000   -0.89145757240000   -0.29841688340000
C        -0.51844068670000    1.14842347950000   -0.01723543580000
N        -1.03744025410000    2.38975480140000    0.02034347710000
C         0.88447756400000    0.96525973470000   -0.10738596070000
C         1.75998967570000    2.13627074270000   -0.24196171670000
C         2.91292138560000    2.30483659330000    0.38790087330000
C         1.39811842340000   -0.31941497560000   -0.09843745910000
F         2.73216810070000   -0.45801913340000   -0.22296372050000
H         2.57957101180000   -4.30238046940000    0.23198992800000
H         3.18844384270000   -2.58375943460000    0.29748957820000
H         0.31504872390000   -3.58403644350000   -0.02759332760000
H        -1.39538788750000   -2.14187715630000    0.11773887240000
H        -3.04213142130000   -1.64510628900000   -0.58721976810000
H        -2.03243834670000    2.47326383420000    0.18324255990000
H        -0.43408397810000    3.18409818550000    0.12559723530000
H         1.40563820620000    2.89707716250000   -0.92837788300000
H         3.29631630590000    1.58110805490000    1.08614493630000
H         3.51725574840000    3.18103521260000    0.22693065150000
$end

$rem
BASIS = 6-31G*
GUI = 2
METHOD = B3LYP
PRINT_ORBITALS false
MOLDEN_FORMAT false
--------------------------------------------------------------

             Standard Nuclear Orientation (Angstroms)
    I     Atom           X                Y                Z
 ----------------------------------------------------------------
    1      C       2.9826085808     2.6615332401    -0.2031460672
    2      C       1.6680707721     2.5332621047    -0.0617607842
    3      C       0.8841447317     1.3067823727     0.0009244906
    4      C      -0.5018363973     1.4002364367    -0.0427136243
    5      C      -1.3457602143     0.2920263769    -0.0152236804
    6      C      -2.8148266450     0.4466834596    -0.0590301942
    7      O      -3.5832241043    -0.4448682222    -0.3458930820
    8      O      -3.3170014129     1.6525828609     0.2548288720
    9      C      -0.7769117121    -1.0055051704     0.0273395614
   10      N      -1.5530243975    -2.1047702888    -0.0033439071
   11      C       0.6314663424    -1.1304677942     0.1308349286
   12      C       1.2303072585    -2.4620075312     0.2866885741
   13      C       2.3242596274    -2.8847318368    -0.3289129463
   14      C       1.4121614580     0.0116987697     0.1145010313
   15      F       2.7433452168    -0.1413719367     0.2520713874
   16      H       3.4339637811     3.6384549292    -0.2432443078
   17      H       3.6551819201     1.8279275974    -0.2848123883
   18      H       1.0653409321     3.4325452742    -0.0009845056
   19      H      -0.9164265885     2.3948351718    -0.1502945773
   20      H      -2.6376335340     2.2763845094     0.5417519072
   21      H      -2.5409784763    -1.9720644482    -0.1761645431
   22      H      -1.1359238010    -3.0124595950    -0.0940399772
   23      H       0.7132919653    -3.1192111926     0.9768603351
   24      H       2.8616613374    -2.2701723723    -1.0302227926
   25      H       2.7222876189    -3.8692800990    -0.1525783433
 ----------------------------------------------------------------

    9    -730.1975182801      6.63e-06  Convergence criterion met
 Total energy in the final basis set =     -730.1975182801

                    Orbital Energies (a.u.)
 --------------------------------------------------------------

 Alpha MOs
 -- Occupied --
-24.7204 -19.1971 -19.1368 -14.3530 -10.3243 -10.2867 -10.2574 -10.2163
-10.2082 -10.2079 -10.2051 -10.2039 -10.1963 -10.1918 -10.1773  -1.2330
 -1.1086  -1.0244  -0.9468  -0.8700  -0.8153  -0.7915  -0.7528  -0.7297
 -0.6631  -0.6431  -0.6324  -0.6040  -0.5810  -0.5569  -0.5491  -0.5344
 -0.4943  -0.4868  -0.4759  -0.4697  -0.4567  -0.4521  -0.4455  -0.4412
 -0.4161  -0.4049  -0.3984  -0.3948  -0.3830  -0.3688  -0.3462  -0.3403
 -0.3202  -0.3013  -0.2802  -0.2766  -0.2464  -0.2036

          Ground-State Mulliken Net Atomic Charges

     Atom                 Charge (a.u.)
  ----------------------------------------
      1 C                    -0.362099
      2 C                    -0.114322
      3 C                     0.134752
      4 C                    -0.330944
      5 C                     0.057572
      6 C                     0.576867
      7 O                    -0.493649
      8 O                    -0.571496
      9 C                     0.271607
     10 N                    -0.840218
     11 C                     0.043469
     12 C                    -0.151451
     13 C                    -0.315664
     14 C                     0.240605
     15 F                    -0.277135
     16 H                     0.138347
     17 H                     0.156152
     18 H                     0.122380
     19 H                     0.127545
     20 H                     0.418875
     21 H                     0.387762
     22 H                     0.335427
     23 H                     0.142020
     24 H                     0.156644
     25 H                     0.146957
  ----------------------------------------
  Sum of atomic charges =     0.000000

                    Cartesian Multipole Moments
 -----------------------------------------------------------------
    Charge (ESU x 10^10)
                 0.0000
    Dipole Moment (Debye)
         X       2.0288      Y      -0.3528      Z       0.3982
       Tot       2.0974
    Quadrupole Moments (Debye-Ang)
        XX    -101.0766     XY      -1.9049     YY     -68.7411
        XZ      -3.5590     YZ       1.0398     ZZ     -87.4139

 Total job time:  42.91s(wall), 42.56s(cpu)
        *  Thank you very much for using Q-Chem.  Have a nice day.  *
