 Q-Chem 5.2, Q-Chem, Inc., Pleasanton, CA (2019)
 Q-Chem 5.2.1 for Intel X86 EM64T Linux

User input:
--------------------------------------------------------------
$molecule
0 1
C         3.64322447610000   -0.35333429050000   -0.19957830700000
C         2.47201180070000   -0.74958255910000    0.28006072790000
C         1.21614801100000   -0.01017821710000    0.18104346580000
C         1.18610105710000    1.37158207800000    0.03343654800000
C        -0.01898870010000    2.06373224650000   -0.04462148320000
N        -0.03055326390000    3.43007717360000   -0.25640523380000
C        -1.21201059970000    1.35084970220000    0.03100925480000
C        -1.21888825020000   -0.03143017080000    0.17787624430000
C        -2.46150353780000   -0.79314855820000    0.27238843640000
C        -3.64182959690000   -0.41200256320000   -0.19723290240000
C         0.00456719630000   -0.70910556180000    0.26498917670000
O         0.01627715150000   -2.08867359580000    0.42932899000000
C         0.04023453820000   -2.80126902810000   -0.78713468190000
H         4.52851414200000   -0.95647858060000   -0.09072161330000
H         3.76600015070000    0.57693395930000   -0.72873853550000
H         2.38913064370000   -1.70902454090000    0.77441968240000
H         2.11338310000000    1.92384254390000    0.00134129730000
H         0.81085317310000    3.92315583380000   -0.00427406280000
H        -0.88089352110000    3.90857392760000   -0.00616219550000
H        -2.14838161660000    1.88735311530000   -0.00334260540000
H        -2.35980528820000   -1.75701151620000    0.75438168940000
H        -3.78441125220000    0.52245587470000   -0.71386550190000
H        -4.51550370400000   -1.03246610010000   -0.09196209450000
H        -0.84665382860000   -2.58240536480000   -1.39357028430000
H         0.04936060060000   -3.85802517050000   -0.52398857280000
H         0.93657713740000   -2.56144093540000   -1.37126242500000
$end

$rem
BASIS = 6-31G*
GUI = 2
METHOD = B3LYP
PRINT_ORBITALS false
MOLDEN_FORMAT false
--------------------------------------------------------------

             Standard Nuclear Orientation (Angstroms)
    I     Atom           X                Y                Z
 ----------------------------------------------------------------
    1      C       3.6431229816     0.3440871557     0.1777349241
    2      C       2.4720607179     0.7361064202    -0.3057312030
    3      C       1.2158155027    -0.0015910294    -0.1991127736
    4      C       1.1850506503    -1.3817770078    -0.0375815887
    5      C      -0.0203980131    -2.0724610922     0.0475961673
    6      N      -0.0326640944    -3.4365954686     0.2731432856
    7      C      -1.2130492840    -1.3597396627    -0.0350711987
    8      C      -1.2192086593     0.0209930581    -0.1958632312
    9      C      -2.4614296762     0.7823840224    -0.2978973131
   10      C      -3.6418990166     0.4066219545     0.1756859235
   11      C       0.0045968215     0.6971020153    -0.2899517607
   12      O       0.0170213802     2.0749369776    -0.4681906587
   13      C       0.0415134493     2.7997451427     0.7410253410
   14      H       4.5287202301     0.9456303509     0.0626962140
   15      H       3.7654699908    -0.5808654265     0.7162303840
   16      H       2.3896282019     1.6905607220    -0.8097260886
   17      H       2.1120422008    -1.9341813634    -0.0000341845
   18      H       0.8084472544    -3.9326401171     0.0258926227
   19      H      -0.8832911712    -3.9171358467     0.0278398079
   20      H      -2.1497018254    -1.8953690797     0.0048009495
   21      H      -2.3592788831     1.7412850804    -0.7895941792
   22      H      -3.7849131253    -0.5225050718     0.7017289608
   23      H      -4.5152555870     1.0264596555     0.0642726633
   24      H      -0.8454143159     2.5874793998     1.3497443336
   25      H       0.0511694383     3.8537900821     0.4672394176
   26      H       0.9378023670     2.5653382129     1.3274316479
 ----------------------------------------------------------------

    8    -556.9147850331      8.85e-06  Convergence criterion met
 Total energy in the final basis set =     -556.9147850331

                    Orbital Energies (a.u.)
 --------------------------------------------------------------

 Alpha MOs
 -- Occupied --
-19.1560 -14.3384 -10.2244 -10.2241 -10.2219 -10.1885 -10.1884 -10.1824
-10.1821 -10.1765 -10.1765 -10.1744 -10.1741  -1.0447  -0.9210  -0.8448
 -0.8001  -0.7605  -0.7293  -0.7147  -0.6736  -0.6402  -0.5920  -0.5781
 -0.5466  -0.5163  -0.5106  -0.4937  -0.4766  -0.4559  -0.4447  -0.4446
 -0.4232  -0.4226  -0.4086  -0.4016  -0.3820  -0.3615  -0.3597  -0.3412
 -0.3288  -0.3155  -0.3041  -0.2642  -0.2504  -0.2157  -0.1927

          Ground-State Mulliken Net Atomic Charges

     Atom                 Charge (a.u.)
  ----------------------------------------
      1 C                    -0.348671
      2 C                    -0.121341
      3 C                     0.153031
      4 C                    -0.266744
      5 C                     0.361157
      6 N                    -0.807297
      7 C                    -0.267097
      8 C                     0.152941
      9 C                    -0.120437
     10 C                    -0.348967
     11 C                     0.164109
     12 O                    -0.522382
     13 C                    -0.208698
     14 H                     0.141351
     15 H                     0.139125
     16 H                     0.148890
     17 H                     0.115033
     18 H                     0.322008
     19 H                     0.322021
     20 H                     0.114899
     21 H                     0.148719
     22 H                     0.138882
     23 H                     0.141292
     24 H                     0.146314
     25 H                     0.155167
     26 H                     0.146695
  ----------------------------------------
  Sum of atomic charges =     0.000000

                    Cartesian Multipole Moments
 -----------------------------------------------------------------
    Charge (ESU x 10^10)
                 0.0000
    Dipole Moment (Debye)
         X       0.0081      Y      -1.6422      Z       0.3706
       Tot       1.6836
    Quadrupole Moments (Debye-Ang)
        XX     -71.1702     XY       0.1457     YY     -62.3588
        XZ       0.0384     YZ       4.3603     ZZ     -81.3973

 Total job time:  33.34s(wall), 33.20s(cpu)
        *  Thank you very much for using Q-Chem.  Have a nice day.  *
