 Q-Chem 5.2, Q-Chem, Inc., Pleasanton, CA (2019)
 Q-Chem 5.2.1 for Intel X86 EM64T Linux

User input:
--------------------------------------------------------------
$molecule
0 1
C         3.50695389690000    1.95871301890000    0.34330157770000
C         2.29261630950000    2.02428938230000   -0.18910899720000
C         1.28346535160000    0.98541984740000   -0.13938427370000
C        -0.10115927690000    1.22471065890000   -0.13034101190000
C        -0.73682267880000    0.00002464280000   -0.03422837450000
C        -2.13804999870000   -0.37754685050000    0.01818105280000
O        -2.52219652900000   -1.52531892770000    0.10256672710000
O        -2.96305835650000    0.68191896920000   -0.03805228690000
C        -4.34888982780000    0.38205025360000    0.00641747530000
N         0.22634835940000   -0.96552987780000    0.00524514420000
C         1.45794091950000   -0.40607460460000   -0.06372923430000
C         2.66893854600000   -1.18164568570000   -0.13322748510000
C         2.77597158530000   -2.47032177330000    0.18268710940000
H         4.19688147150000    2.78192431610000    0.26836164850000
H         3.84827018040000    1.09781233100000    0.89197899880000
H         1.97277231030000    2.93599463360000   -0.67899731760000
H        -0.58513709530000    2.17968745890000   -0.17158769420000
H        -4.86723432970000    1.33686904150000   -0.02333859190000
H        -4.59224183130000   -0.15900387360000    0.92351946420000
H        -4.63237553420000   -0.23517595750000   -0.84906592480000
H         0.01482062140000   -1.95007592970000    0.04066982510000
H         3.53444923250000   -0.63903716590000   -0.48672474110000
H         1.94898160850000   -3.04632562280000    0.56350185340000
H         3.71041641940000   -2.99418808290000    0.08628233480000
$end

$rem
BASIS = 6-31G*
GUI = 2
METHOD = B3LYP
PRINT_ORBITALS false
MOLDEN_FORMAT false
--------------------------------------------------------------

             Standard Nuclear Orientation (Angstroms)
    I     Atom           X                Y                Z
 ----------------------------------------------------------------
    1      C       3.5586158696     1.8056633681     0.3679202178
    2      C       2.3432374937     1.9344779704    -0.1503839953
    3      C       1.2953309778     0.9338354296    -0.1236528531
    4      C      -0.0789387351     1.2254025701    -0.0936763011
    5      C      -0.7604022111     0.0234371732    -0.0300512037
    6      C      -2.1746218807    -0.3018426106     0.0239929547
    7      O      -2.6019044259    -1.4362177174     0.0758869203
    8      O      -2.9587145025     0.7896001886     0.0091545424
    9      C      -4.3546286793     0.5415922306     0.0575625701
   10      N       0.1652162979    -0.9789511903    -0.0303415948
   11      C       1.4167886591    -0.4650088230    -0.0935695101
   12      C       2.5964269174    -1.2836386260    -0.1991847804
   13      C       2.6564823054    -2.5848704365     0.0749197382
   14      H       4.2790381794     2.6039045330     0.3122818389
   15      H       3.8711964164     0.9153190264     0.8858720180
   16      H       2.0545642039     2.8728715664    -0.6081857062
   17      H      -0.5261576750     2.1989887735    -0.1001284643
   18      H      -4.8360964831     1.5159665891     0.0629223615
   19      H      -4.6108425424    -0.0187166483     0.9594740074
   20      H      -4.6688746815    -0.0367965386    -0.8141599036
   21      H      -0.0837173333    -1.9553325181    -0.0239096169
   22      H       3.4791457913    -0.7634828915    -0.5437692630
   23      H       1.8112008919    -3.1407209881     0.4453819113
   24      H       3.5692362728    -3.1406918166    -0.0469807433
 ----------------------------------------------------------------

    9    -592.8557505339      6.21e-06  Convergence criterion met
 Total energy in the final basis set =     -592.8557505339

                    Orbital Energies (a.u.)
 --------------------------------------------------------------

 Alpha MOs
 -- Occupied --
-19.1902 -19.1303 -14.3889 -10.3133 -10.2380 -10.2267 -10.2202 -10.2001
-10.1914 -10.1881 -10.1879 -10.1839 -10.1768  -1.1053  -1.0165  -0.9950
 -0.8156  -0.8040  -0.7613  -0.7461  -0.7079  -0.6387  -0.6222  -0.5924
 -0.5741  -0.5409  -0.5313  -0.4843  -0.4764  -0.4736  -0.4591  -0.4564
 -0.4384  -0.4320  -0.4227  -0.4113  -0.3879  -0.3864  -0.3706  -0.3568
 -0.3534  -0.3036  -0.2985  -0.2982  -0.2757  -0.2375  -0.2034

          Ground-State Mulliken Net Atomic Charges

     Atom                 Charge (a.u.)
  ----------------------------------------
      1 C                    -0.357412
      2 C                    -0.111561
      3 C                     0.031835
      4 C                    -0.234409
      5 C                     0.291495
      6 C                     0.572976
      7 O                    -0.520125
      8 O                    -0.457874
      9 C                    -0.216037
     10 N                    -0.704615
     11 C                     0.314065
     12 C                    -0.088078
     13 C                    -0.369471
     14 H                     0.140789
     15 H                     0.146511
     16 H                     0.132477
     17 H                     0.145832
     18 H                     0.164313
     19 H                     0.169015
     20 H                     0.167777
     21 H                     0.345368
     22 H                     0.150372
     23 H                     0.135276
     24 H                     0.151483
  ----------------------------------------
  Sum of atomic charges =     0.000000

                    Cartesian Multipole Moments
 -----------------------------------------------------------------
    Charge (ESU x 10^10)
                -0.0000
    Dipole Moment (Debye)
         X       0.2155      Y       0.4988      Z      -0.1625
       Tot       0.5672
    Quadrupole Moments (Debye-Ang)
        XX     -65.5870     XY      -6.3477     YY     -71.8068
        XZ      -0.2071     YZ      -1.0148     ZZ     -77.7500

 Total job time:  31.24s(wall), 31.13s(cpu)
        *  Thank you very much for using Q-Chem.  Have a nice day.  *
