 Q-Chem 5.2, Q-Chem, Inc., Pleasanton, CA (2019)
 Q-Chem 5.2.1 for Intel X86 EM64T Linux

User input:
--------------------------------------------------------------
$molecule
0 1
C        -3.67492838560000   -0.44138054510000    0.00239698060000
C        -2.62819617890000    0.38084615720000   -0.00085810660000
C        -1.24978055590000   -0.02892088460000   -0.00049030990000
C        -0.69961189850000   -1.28836902140000    0.00135855600000
C         0.69960869750000   -1.28836847860000    0.00153660720000
C         1.24977874370000   -0.02891696300000   -0.00021189880000
C         2.62819666510000    0.38084774050000   -0.00020791510000
C         3.67493903180000   -0.44137720170000    0.00167666320000
S        -0.00000372880000    1.17764999920000   -0.00234989690000
H        -4.68188721270000   -0.06346075310000    0.00208616070000
H        -3.56371982650000   -1.51171229710000    0.00564969340000
H        -2.78622881220000    1.45172131870000   -0.00374568000000
H        -1.28968421100000   -2.18705899400000    0.00243180370000
H         1.28968479340000   -2.18705601270000    0.00286057730000
H         2.78623286750000    1.45172246050000   -0.00171847460000
H         3.56375866280000   -1.51168797230000    0.00334507760000
H         4.68188942400000   -0.06343866300000    0.00186350540000
$end

$rem
BASIS = 6-31G*
GUI = 2
METHOD = B3LYP
PRINT_ORBITALS false
MOLDEN_FORMAT false
--------------------------------------------------------------

             Standard Nuclear Orientation (Angstroms)
    I     Atom           X                Y                Z
 ----------------------------------------------------------------
    1      C       3.6749290229    -0.4092645514    -0.0015316777
    2      C       2.6281961922     0.4129658334     0.0002665509
    3      C       1.2497808599     0.0031977792     0.0005937282
    4      C       0.6996131073    -1.2562520620     0.0009411931
    5      C      -0.6996074856    -1.2562528426     0.0007402627
    6      C      -1.2497784348     0.0031994061     0.0002744406
    7      C      -2.6281966405     0.4129624779    -0.0004695893
    8      C      -3.6749384053    -0.4092652605    -0.0009315445
    9      S       0.0000031648     1.2097691659     0.0003201430
   10      H       4.6818875823    -0.0313440665    -0.0018661401
   11      H       3.5637212601    -1.4796004385    -0.0029120274
   12      H       2.7862280347     1.4838445236     0.0012815759
   13      H       1.2896860613    -2.1549421095     0.0014512229
   14      H      -1.2896829358    -2.1549417439     0.0009802696
   15      H      -2.7862336111     1.4838380870    -0.0008367434
   16      H      -3.5637572659    -1.4795772313    -0.0007239987
   17      H      -4.6818890568    -0.0313283564    -0.0017966304
 ----------------------------------------------------------------

    9    -707.8019533401      3.58e-06  Convergence criterion met
 Total energy in the final basis set =     -707.8019533401

                    Orbital Energies (a.u.)
 --------------------------------------------------------------

 Alpha MOs
 -- Occupied --
-88.9060 -10.2183 -10.2183 -10.1989 -10.1989 -10.1901 -10.1896 -10.1824
-10.1824  -7.9679  -5.9317  -5.9283  -5.9250  -0.8901  -0.8065  -0.7725
 -0.7400  -0.7006  -0.6148  -0.6087  -0.5438  -0.5131  -0.5064  -0.4720
 -0.4401  -0.4287  -0.4110  -0.3948  -0.3700  -0.3641  -0.3595  -0.3437
 -0.3226  -0.2718  -0.2551  -0.1978

          Ground-State Mulliken Net Atomic Charges

     Atom                 Charge (a.u.)
  ----------------------------------------
      1 C                    -0.342184
      2 C                    -0.088216
      3 C                    -0.130944
      4 C                    -0.121958
      5 C                    -0.121959
      6 C                    -0.130944
      7 C                    -0.088222
      8 C                    -0.342181
      9 S                     0.236884
     10 H                     0.146870
     11 H                     0.142081
     12 H                     0.137075
     13 H                     0.138835
     14 H                     0.138835
     15 H                     0.137074
     16 H                     0.142084
     17 H                     0.146870
  ----------------------------------------
  Sum of atomic charges =     0.000000

                    Cartesian Multipole Moments
 -----------------------------------------------------------------
    Charge (ESU x 10^10)
                -0.0000
    Dipole Moment (Debye)
         X       0.0000      Y      -0.5765      Z      -0.0004
       Tot       0.5765
    Quadrupole Moments (Debye-Ang)
        XX     -53.2960     XY       0.0000     YY     -54.9477
        XZ       0.0011     YZ       0.0010     ZZ     -64.8410

 Total job time:  16.62s(wall), 16.05s(cpu)
        *  Thank you very much for using Q-Chem.  Have a nice day.  *
