 Q-Chem 5.2, Q-Chem, Inc., Pleasanton, CA (2019)
 Q-Chem 5.2.1 for Intel X86 EM64T Linux

User input:
--------------------------------------------------------------
$molecule
0 1
C         1.62647843240000    4.84348346570000   -3.13190181340000
C         0.43577789430000    4.84304850390000   -2.54580352720000
C        -0.17477934020000    3.74165296950000   -1.80877380710000
C        -1.47008574530000    3.90055864800000   -1.31641389460000
C        -2.10460652070000    2.88710228740000   -0.60736764130000
C        -3.45687270780000    3.11714950150000   -0.10906054410000
C        -4.11768952140000    2.37451991510000    0.77043769780000
C        -1.43188704550000    1.68336054300000   -0.39274381630000
C        -0.14109412960000    1.50643122200000   -0.87300966100000
O         0.60385478180000    0.37555040810000   -0.73640082360000
C         0.10898388540000   -0.70781185650000    0.02439360520000
C         0.20363247930000   -0.44146106750000    1.53076153250000
C        -0.53525271940000   -1.48305782800000    2.37059665030000
C        -0.09375434200000   -2.92629113000000    2.12609602870000
C         1.37711315970000   -3.16889391650000    2.45729557310000
C         1.79301748280000   -4.60532406930000    2.14535061950000
C         1.86873856800000   -4.85966794290000    0.65036591720000
O         1.75192238720000   -4.02082824830000   -0.19292622320000
O         2.10074383760000   -6.14369121490000    0.31255461370000
C         0.47947151750000    2.53836340730000   -1.57603076870000
H         1.99133322830000    5.70960088220000   -3.65735136110000
H         2.28250134930000    3.99054782500000   -3.11722294470000
H        -0.17671851920000    5.73505439400000   -2.60495227590000
H        -1.99010706290000    4.83324246340000   -1.48529679810000
H        -3.93442637200000    4.00560879510000   -0.50443602470000
H        -3.69860497800000    1.49150764670000    1.22219177550000
H        -5.11547124160000    2.63110706040000    1.08306634060000
H        -1.93783923220000    0.89312012320000    0.13580411810000
H         0.74502180570000   -1.55027197980000   -0.25807665270000
H        -0.92401357110000   -0.94326120230000   -0.26211801910000
H        -0.22293136320000    0.54248379790000    1.74206184390000
H         1.25594039990000   -0.39927075520000    1.81359030270000
H        -1.60523697540000   -1.41423517050000    2.15785459310000
H        -0.39440541270000   -1.23859083400000    3.42647697870000
H        -0.27131420140000   -3.18741725790000    1.08329798430000
H        -0.71137751600000   -3.58362602860000    2.74495073150000
H         1.55474067810000   -2.95952767590000    3.51408785360000
H         2.00058051440000   -2.50141552480000    1.86349553740000
H         1.08694191170000   -5.31273865700000    2.59103580350000
H         2.78443996290000   -4.80821484370000    2.56276494630000
H         2.18314188810000   -6.72476874230000    1.07972862960000
H         1.48038485580000    2.36424246590000   -1.93437934970000
$end

$rem
BASIS = 6-31G*
GUI = 2
METHOD = B3LYP
PRINT_ORBITALS false
MOLDEN_FORMAT false
--------------------------------------------------------------

             Standard Nuclear Orientation (Angstroms)
    I     Atom           X                Y                Z
 ----------------------------------------------------------------
    1      C       4.9786722516    -3.3634815629     0.4638492110
    2      C       5.1129270341    -2.0548115436     0.2888132273
    3      C       4.0418007952    -1.0879058833     0.0723713353
    4      C       4.3787414006     0.2452718855    -0.1612866338
    5      C       3.4029155425     1.2120308802    -0.3748233741
    6      C       3.8180170408     2.5922444851    -0.6040758016
    7      C       3.0419377243     3.6689237910    -0.5915343519
    8      C       2.0590371220     0.8359180271    -0.3630344622
    9      C       1.7030872834    -0.4858727299    -0.1300655266
   10      O       0.4307548301    -0.9688309004    -0.1094790212
   11      C      -0.6625146658    -0.0829052120    -0.2409196819
   12      C      -0.9209496138     0.7044852167     1.0483720314
   13      C      -1.9356503450     1.8331425033     0.8675037675
   14      C      -3.2905172099     1.3877230252     0.3165400645
   15      C      -4.0106919209     0.3931658806     1.2243973934
   16      C      -5.3312098078    -0.0708603826     0.6124090100
   17      C      -5.1111743357    -0.9906595381    -0.5754283751
   18      O      -4.0502096008    -1.4176023396    -0.9225787215
   19      O      -6.2354530381    -1.3260169069    -1.2388976807
   20      C       2.6975729018    -1.4384959446     0.0884105610
   21      H       5.8348447498    -3.9986554578     0.6151714006
   22      H       4.0216589450    -3.8556213511     0.4616804370
   23      H       6.1078502482    -1.6253954048     0.2961967711
   24      H       5.4204964962     0.5342006724    -0.1717356602
   25      H       4.8796077515     2.7168337042    -0.7808295249
   26      H       1.9832058897     3.6244100225    -0.4004069227
   27      H       3.4446388342     4.6520172502    -0.7661798764
   28      H       1.3088206172     1.5847173487    -0.5535737681
   29      H      -1.5108430889    -0.7317257651    -0.4720982243
   30      H      -0.5090732799     0.5999103948    -1.0863944825
   31      H       0.0223781197     1.1361751495     1.3926518893
   32      H      -1.2543017607     0.0112715737     1.8213243500
   33      H      -1.5186384505     2.5771488326     0.1838242291
   34      H      -2.0842212605     2.3222427429     1.8335229089
   35      H      -3.1513819591     0.9367173447    -0.6654871133
   36      H      -3.9182987432     2.2746542729     0.1909534191
   37      H      -4.2013700250     0.8542357644     2.1956090619
   38      H      -3.3831551346    -0.4843617749     1.3759896881
   39      H      -5.9261699291     0.7893897557     0.2905308534
   40      H      -5.9137493433    -0.6269741153     1.3538286795
   41      H      -7.0285589751    -0.9252082948    -0.8603056426
   42      H       2.3835155822    -2.4538588757     0.2643805490
 ----------------------------------------------------------------

    9    -886.6931801931      3.28e-06  Convergence criterion met
 Total energy in the final basis set =     -886.6931801931

                    Orbital Energies (a.u.)
 --------------------------------------------------------------

 Alpha MOs
 -- Occupied --
-19.2013 -19.1648 -19.1427 -10.3251 -10.2388 -10.2274 -10.2134 -10.1915
-10.1894 -10.1880 -10.1857 -10.1839 -10.1831 -10.1822 -10.1779 -10.1768
-10.1755 -10.1738 -10.1729 -10.1727  -1.1116  -1.0562  -1.0310  -0.8583
 -0.8241  -0.7990  -0.7893  -0.7686  -0.7381  -0.7188  -0.7114  -0.6720
 -0.6392  -0.6314  -0.6183  -0.5927  -0.5796  -0.5609  -0.5359  -0.5250
 -0.5197  -0.4900  -0.4848  -0.4838  -0.4724  -0.4638  -0.4532  -0.4479
 -0.4421  -0.4350  -0.4216  -0.4187  -0.4149  -0.4129  -0.3979  -0.3847
 -0.3768  -0.3743  -0.3679  -0.3621  -0.3553  -0.3505  -0.3442  -0.3391
 -0.3287  -0.3241  -0.3221  -0.3146  -0.3100  -0.3073  -0.2800  -0.2533
 -0.2126  -0.2074

          Ground-State Mulliken Net Atomic Charges

     Atom                 Charge (a.u.)
  ----------------------------------------
      1 C                    -0.352004
      2 C                    -0.113300
      3 C                     0.192225
      4 C                    -0.286653
      5 C                     0.180196
      6 C                    -0.111162
      7 C                    -0.355206
      8 C                    -0.261018
      9 C                     0.395950
     10 O                    -0.528445
     11 C                    -0.059449
     12 C                    -0.289019
     13 C                    -0.269562
     14 C                    -0.273329
     15 C                    -0.251648
     16 C                    -0.407618
     17 C                     0.610675
     18 O                    -0.430925
     19 O                    -0.564508
     20 C                    -0.250109
     21 H                     0.141726
     22 H                     0.145625
     23 H                     0.124595
     24 H                     0.120021
     25 H                     0.127181
     26 H                     0.138256
     27 H                     0.142038
     28 H                     0.130418
     29 H                     0.191629
     30 H                     0.134539
     31 H                     0.151464
     32 H                     0.147607
     33 H                     0.131386
     34 H                     0.133127
     35 H                     0.163988
     36 H                     0.124720
     37 H                     0.133303
     38 H                     0.166066
     39 H                     0.158803
     40 H                     0.172005
     41 H                     0.413325
     42 H                     0.133086
  ----------------------------------------
  Sum of atomic charges =     0.000000

                    Cartesian Multipole Moments
 -----------------------------------------------------------------
    Charge (ESU x 10^10)
                 0.0000
    Dipole Moment (Debye)
         X      -4.2095      Y       2.6857      Z       2.0529
       Tot       5.3989
    Quadrupole Moments (Debye-Ang)
        XX     -81.3706     XY      -7.1378     YY    -119.3815
        XZ      -9.1111     YZ      -5.4356     ZZ    -125.4783

 Total job time:  79.46s(wall), 79.24s(cpu)
        *  Thank you very much for using Q-Chem.  Have a nice day.  *
