 Q-Chem 5.2, Q-Chem, Inc., Pleasanton, CA (2019)
 Q-Chem 5.2.1 for Intel X86 EM64T Linux

User input:
--------------------------------------------------------------
$molecule
0 1
C        -3.60535910990000   -2.37460018600000   -0.00162832630000
C        -3.23858567930000   -1.09660960510000   -0.00081622020000
C        -1.87487077740000   -0.63400642920000   -0.00031687640000
C        -0.67036397000000   -1.29074592430000   -0.00003146920000
C         0.33457023640000   -0.29228556260000   -0.00007733930000
C         1.76586360690000   -0.60018359800000    0.00013984170000
O         2.21328783220000   -1.72128655900000    0.00292514340000
O         2.54781504990000    0.49632922250000   -0.00220970860000
C         3.94580192530000    0.24961209650000   -0.00161965160000
C        -0.33427921120000    0.92761398740000   -0.00016496260000
C         0.15964028510000    2.27846872390000    0.00023118580000
C        -0.62998049540000    3.35095003630000    0.00361842310000
O        -1.65981095380000    0.70524133620000   -0.00023834010000
H        -4.64241000710000   -2.65901129560000   -0.00170891400000
H        -2.88349710540000   -3.17222372530000   -0.00167099880000
H        -3.97810913570000   -0.30724512630000   -0.00043297890000
H        -0.49516221690000   -2.34586640660000    0.00008889760000
H         4.42658716410000    1.22443958370000    0.00725953070000
H         4.23259717790000   -0.31207651320000   -0.89309313660000
H         4.22931142060000   -0.32707067700000    0.88127607150000
H         1.23445384790000    2.36768538830000   -0.00199748770000
H        -1.70284498380000    3.25865582210000    0.00649934980000
H        -0.22490334960000    4.34720581640000    0.00413568390000
$end

$rem
BASIS = 6-31G*
GUI = 2
METHOD = B3LYP
PRINT_ORBITALS false
MOLDEN_FORMAT false
--------------------------------------------------------------

             Standard Nuclear Orientation (Angstroms)
    I     Atom           X                Y                Z
 ----------------------------------------------------------------
    1      C       4.0690616020    -1.4633250827     0.0009056774
    2      C       3.4100094799    -0.3085811586     0.0005833595
    3      C       1.9755273468    -0.1821646663     0.0001814029
    4      C       0.9608601774    -1.1055246376    -0.0004461220
    5      C      -0.2519795765    -0.3735168230    -0.0000642258
    6      C      -1.5696090760    -1.0116815930    -0.0004980541
    7      O      -1.7387457709    -2.2068594724    -0.0037629462
    8      O      -2.5890373265    -0.1315949594     0.0022414017
    9      C      -3.8888000592    -0.7024305071     0.0014614467
   10      C       0.1088789838     0.9700959251     0.0005570657
   11      C      -0.6909600799     2.1655132596     0.0006717346
   12      C      -0.1778484370     3.3945114773    -0.0022332387
   13      O       1.4493613920     1.0680291188     0.0006271209
   14      H       5.1439678678    -1.4939970203     0.0009392847
   15      H       3.5566750107    -2.4092362526     0.0005809440
   16      H       3.9415112112     0.6334895813     0.0005653515
   17      H       1.0405698087    -2.1721177966    -0.0010018916
   18      H      -4.5868096880     0.1307752938    -0.0070571822
   19      H      -4.0343582643    -1.3164290007     0.8926905106
   20      H      -4.0276713653    -1.3294980889    -0.8816843630
   21      H      -1.7563187417     1.9975999493     0.0028664926
   22      H       0.8863455734     3.5589734095    -0.0050816132
   23      H      -0.8073799372     4.2664652666    -0.0023764208
 ----------------------------------------------------------------

    9    -612.7108699372      6.45e-06  Convergence criterion met
 Total energy in the final basis set =     -612.7108699372

                    Orbital Energies (a.u.)
 --------------------------------------------------------------

 Alpha MOs
 -- Occupied --
-19.2274 -19.1939 -19.1320 -10.3160 -10.2586 -10.2494 -10.2403 -10.2027
-10.2021 -10.1980 -10.1910 -10.1888 -10.1885  -1.1333  -1.1087  -1.0163
 -0.8260  -0.8231  -0.7845  -0.7407  -0.7177  -0.6427  -0.6341  -0.5842
 -0.5762  -0.5604  -0.5135  -0.4880  -0.4878  -0.4756  -0.4708  -0.4662
 -0.4457  -0.4321  -0.4166  -0.4063  -0.3993  -0.3917  -0.3730  -0.3637
 -0.3529  -0.3269  -0.3034  -0.2967  -0.2758  -0.2748  -0.2033

          Ground-State Mulliken Net Atomic Charges

     Atom                 Charge (a.u.)
  ----------------------------------------
      1 C                    -0.342610
      2 C                    -0.124380
      3 C                     0.335770
      4 C                    -0.218937
      5 C                    -0.001027
      6 C                     0.582223
      7 O                    -0.489058
      8 O                    -0.468251
      9 C                    -0.216735
     10 C                     0.295290
     11 C                    -0.110941
     12 C                    -0.346307
     13 O                    -0.489056
     14 H                     0.151449
     15 H                     0.150005
     16 H                     0.146032
     17 H                     0.163162
     18 H                     0.162630
     19 H                     0.170461
     20 H                     0.170952
     21 H                     0.170436
     22 H                     0.159616
     23 H                     0.149277
  ----------------------------------------
  Sum of atomic charges =     0.000000

                    Cartesian Multipole Moments
 -----------------------------------------------------------------
    Charge (ESU x 10^10)
                 0.0000
    Dipole Moment (Debye)
         X      -0.2381      Y       1.5041      Z       0.0028
       Tot       1.5228
    Quadrupole Moments (Debye-Ang)
        XX     -59.5304     XY      -4.2491     YY     -75.3248
        XZ      -0.0125     YZ      -0.0229     ZZ     -76.9657

 Total job time:  29.93s(wall), 29.83s(cpu)
        *  Thank you very much for using Q-Chem.  Have a nice day.  *
