 Q-Chem 5.2, Q-Chem, Inc., Pleasanton, CA (2019)
 Q-Chem 5.2.1 for Intel X86 EM64T Linux

User input:
--------------------------------------------------------------
$molecule
0 1
C         4.07784673220000   -1.92085546000000    0.29365945340000
C         4.11778842990000   -0.60401536880000    0.13682530740000
C         2.92753130430000    0.23322229570000    0.02182649490000
C         3.04764277960000    1.62313328570000   -0.07617184250000
C         1.89865360100000    2.38856053230000   -0.17291644650000
C         0.66969401810000    1.75460411940000   -0.17021610990000
C         0.64086717080000    0.36145855240000   -0.07405141330000
C        -0.64086283650000   -0.36138773580000   -0.07407154440000
C        -0.66964336110000   -1.75452073750000   -0.17045497340000
C        -1.89857380540000   -2.38852969850000   -0.17312575350000
C        -3.04757993200000   -1.62316063560000   -0.07613248320000
C        -2.92751898820000   -0.23325463380000    0.02201098820000
C        -4.11782105520000    0.60389471260000    0.13717060020000
C        -4.07799867420000    1.92083471790000    0.29319405150000
N        -1.74303555760000    0.37060499440000    0.01765069880000
N         1.74302289530000   -0.37058264450000    0.01749263910000
H         4.97158011870000   -2.51467522710000    0.37945163800000
H         3.13357758490000   -2.43459936600000    0.34214718180000
H         5.06260455720000   -0.07785042860000    0.09263196370000
H         4.02398366670000    2.08444535240000   -0.07360921710000
H         1.96225284470000    3.46504868750000   -0.24974108360000
H        -0.25848994420000    2.29621801200000   -0.24317627270000
H         0.25855938640000   -2.29607858010000   -0.24359556600000
H        -1.96213619050000   -3.46500864290000   -0.25010938750000
H        -4.02390166340000   -2.08451299410000   -0.07352305730000
H        -5.06258646140000    0.07757363080000    0.09374462200000
H        -3.13378762760000    2.43475840170000    0.34088159020000
H        -4.97178279140000    2.51456187470000    0.37910222330000
$end

$rem
BASIS = 6-31G*
GUI = 2
METHOD = B3LYP
PRINT_ORBITALS false
MOLDEN_FORMAT false
--------------------------------------------------------------

             Standard Nuclear Orientation (Angstroms)
    I     Atom           X                Y                Z
 ----------------------------------------------------------------
    1      C       4.0960257561    -1.8817809305     0.2914205547
    2      C       4.1233756417    -0.5646185825     0.1345911980
    3      C       2.9251682906     0.2612014892     0.0195954957
    4      C       3.0319856826     1.6521976651    -0.0783977908
    5      C       1.8757309551     2.4066050870    -0.1751395481
    6      C       0.6528886377     1.7609278697    -0.1724414522
    7      C       0.6373826264     0.3675700204    -0.0762818232
    8      C      -0.6373778503    -0.3674975241    -0.0763045156
    9      C      -0.6528376783    -1.7608416653    -0.1726930121
   10      C      -1.8756503564    -2.4065711302    -0.1753660331
   11      C      -3.0319214578    -1.6522227562    -0.0783699163
   12      C      -2.9251545299    -0.2612327649     0.0197786059
   13      C      -4.1234059556     0.5644977258     0.1349413279
   14      C      -4.0961763088     1.8817577044     0.2909695688
   15      N      -1.7464985845     0.3539238241     0.0154204502
   16      N       1.7464868444    -0.3539006215     0.0152595065
   17      H       4.9953956617    -2.4670291120     0.3772105306
   18      H       3.1567115455    -2.4045294490     0.3399064645
   19      H       5.0631180534    -0.0294443836     0.0903997180
   20      H       4.0038714592     2.1228231847    -0.0758335393
   21      H       1.9290352562     3.4836523770    -0.2519602717
   22      H      -0.2804311408     2.2936431429    -0.2453995945
   23      H       0.2805003358    -2.2935001800    -0.2458356250
   24      H      -1.9289179023    -3.4836082978    -0.2523535806
   25      H      -4.0037876938    -2.1228884014    -0.0757621167
   26      H      -5.0630961634     0.0291681961     0.0915134853
   27      H      -3.1569219066     2.4046850872     0.3386589268
   28      H      -4.9955960421     2.4669121702     0.3768799489
 ----------------------------------------------------------------

    9    -650.1890805894      2.39e-06  Convergence criterion met
 Total energy in the final basis set =     -650.1890805894

                    Orbital Energies (a.u.)
 --------------------------------------------------------------

 Alpha MOs
 -- Occupied --
-14.3220 -14.3220 -10.2243 -10.2243 -10.2228 -10.2225 -10.2023 -10.2023
-10.1937 -10.1937 -10.1878 -10.1878 -10.1856 -10.1856 -10.1781 -10.1781
 -0.9586  -0.9409  -0.8146  -0.8068  -0.8002  -0.7875  -0.7456  -0.7254
 -0.6586  -0.6491  -0.6269  -0.6010  -0.5708  -0.5631  -0.5227  -0.4964
 -0.4899  -0.4840  -0.4629  -0.4628  -0.4394  -0.4281  -0.4221  -0.4168
 -0.4035  -0.3949  -0.3946  -0.3802  -0.3734  -0.3582  -0.3455  -0.3184
 -0.3021  -0.2922  -0.2683  -0.2634  -0.2463  -0.2347  -0.2203

          Ground-State Mulliken Net Atomic Charges

     Atom                 Charge (a.u.)
  ----------------------------------------
      1 C                    -0.333166
      2 C                    -0.110316
      3 C                     0.330466
      4 C                    -0.185950
      5 C                    -0.098134
      6 C                    -0.156146
      7 C                     0.262884
      8 C                     0.262868
      9 C                    -0.156144
     10 C                    -0.098131
     11 C                    -0.185953
     12 C                     0.330475
     13 C                    -0.110313
     14 C                    -0.333171
     15 N                    -0.581534
     16 N                    -0.581531
     17 H                     0.141532
     18 H                     0.165940
     19 H                     0.125179
     20 H                     0.135038
     21 H                     0.140235
     22 H                     0.163975
     23 H                     0.163979
     24 H                     0.140234
     25 H                     0.135038
     26 H                     0.125177
     27 H                     0.165939
     28 H                     0.141532
  ----------------------------------------
  Sum of atomic charges =     0.000000

                    Cartesian Multipole Moments
 -----------------------------------------------------------------
    Charge (ESU x 10^10)
                 0.0000
    Dipole Moment (Debye)
         X       0.0001      Y      -0.0000      Z      -0.2161
       Tot       0.2161
    Quadrupole Moments (Debye-Ang)
        XX     -78.1487     XY       5.7442     YY     -80.2275
        XZ      -0.0011     YZ      -0.0010     ZZ     -96.6917

 Total job time:  47.07s(wall), 46.93s(cpu)
        *  Thank you very much for using Q-Chem.  Have a nice day.  *
