 Q-Chem 5.4, Q-Chem, Inc., Pleasanton, CA (2021)
 Q-Chem 5.4.2 for Intel X86 EM64T Linux

User input:
--------------------------------------------------------------
$molecule
0 1
C           -3.65619338570000        1.59401881000000       -0.72037929190000
C           -2.34094190830000        1.48962639980000       -0.85695477350000
C           -1.52174039630000        0.37770052830000       -0.38317017560000
C           -2.06168349770000       -0.88325213170000       -0.14522828760000
C           -1.25758718990000       -1.90938188820000        0.31405867640000
Cl          -1.95045742230000       -3.46043037770000        0.63596312240000
C            0.09791356780000       -1.71831657780000        0.50694185180000
C            0.66929303060000       -0.47768455780000        0.23540338030000
C            2.12042957290000       -0.34342026990000        0.38786840680000
C            2.92717219820000        0.27060425760000       -0.46213018910000
F            2.60374895870000        0.86812299780000       -1.59420771140000
F            4.24614989630000        0.34419335100000       -0.28806168410000
C           -0.14609571210000        0.58487707960000       -0.17592481120000
O            0.37461979290000        1.83663870400000       -0.39233970760000
C            0.77889329900000        2.55116055700000        0.76597730140000
C           -0.40392151650000        2.98805584690000        1.62364619920000
H           -4.19054717370000        2.44927498060000       -1.09642725660000
H           -4.25068428520000        0.84645363810000       -0.22277832440000
H           -1.78015588190000        2.28211957110000       -1.33294079930000
H           -3.10983373140000       -1.06166965950000       -0.32143872880000
H            0.72023936500000       -2.53426204920000        0.83910982270000
H            2.58432875230000       -0.83527465750000        1.22996780880000
H            1.31260692400000        3.42108528530000        0.37647138650000
H            1.47144485260000        1.94982855710000        1.37005932430000
H           -1.09605231180000        3.58579723700000        1.03644258970000
H           -0.04673604050000        3.58017723020000        2.46152489580000
H           -0.93593301440000        2.11945574120000        2.00708298830000
$end

$rem
BASIS = 6-31G*
GUI = 2
METHOD = B3LYP
PRINT_ORBITALS false
MOLDEN_FORMAT false
$end
--------------------------------------------------------------

             Standard Nuclear Orientation (Angstroms)
    I     Atom           X                Y                Z
 ----------------------------------------------------------------
    1      C       2.3108555416    -3.1396340435    -0.8075335635
    2      C       1.2154014361    -2.3965265725    -0.8924374833
    3      C       1.0926265554    -1.0085875806    -0.4559815409
    4      C       2.2029016907    -0.1790755456    -0.3242415961
    5      C       2.0495463316     1.1265670490     0.1026509123
    6      Cl      3.4421452416     2.1335646465     0.2925644790
    7      C       0.7957330126     1.6453256531     0.3671009981
    8      C      -0.3340089110     0.8479675473     0.2019384166
    9      C      -1.6451786877     1.4623088248     0.4266345651
   10      C      -2.7080127726     1.3051628950    -0.3454057587
   11      F      -2.8049599341     0.5877771030    -1.4495749606
   12      F      -3.8731986823     1.9066932428    -0.1089308049
   13      C      -0.1856020900    -0.4932137892    -0.1752816176
   14      O      -1.2731608543    -1.3236481647    -0.2870040016
   15      C      -1.8961222055    -1.7004534465     0.9318535676
   16      C      -1.0295467410    -2.6405357257     1.7630073396
   17      H       2.3216477757    -4.1597275715    -1.1506106418
   18      H       3.2315785387    -2.7728409170    -0.3860934092
   19      H       0.3030372936    -2.8183124249    -1.2909063739
   20      H       3.1857518298    -0.5545845666    -0.5576948581
   21      H       0.6862207169     2.6738737556     0.6728587927
   22      H      -1.7426915755     2.1485751566     1.2547555398
   23      H      -2.8174367547    -2.1998348485     0.6234190671
   24      H      -2.1538187563    -0.8132668369     1.5256846263
   25      H      -0.7692397106    -3.5238289674     1.1857888495
   26      H      -1.5735723300    -2.9458742781     2.6524085055
   27      H      -0.1107907125    -2.1416568820     2.0655522257
 ----------------------------------------------------------------

    9   -1198.9397616424      4.98e-06  Convergence criterion met
 Total energy in the final basis set =    -1198.9397616424

                    Orbital Energies (a.u.)
 --------------------------------------------------------------

 Alpha MOs
 -- Occupied --
******** -24.7409 -24.7371 -19.1702 -10.3612 -10.2521 -10.2504 -10.2415
-10.2168 -10.2073 -10.2073 -10.2047 -10.2019 -10.1933 -10.1855 -10.1793
 -9.4663  -7.2303  -7.2207  -7.2202  -1.2866  -1.2255  -1.0638  -0.9010
 -0.8524  -0.8233  -0.7815  -0.7692  -0.7389  -0.7216  -0.6588  -0.6412
 -0.6318  -0.5948  -0.5780  -0.5617  -0.5331  -0.5265  -0.5182  -0.4984
 -0.4843  -0.4775  -0.4606  -0.4492  -0.4433  -0.4392  -0.4301  -0.4266
 -0.4158  -0.4079  -0.4013  -0.3883  -0.3863  -0.3751  -0.3613  -0.3476
 -0.3313  -0.3156  -0.3112  -0.2838  -0.2692  -0.2328  -0.2273

          Ground-State Mulliken Net Atomic Charges

     Atom                 Charge (a.u.)
  ----------------------------------------
      1 C                    -0.348325
      2 C                    -0.106129
      3 C                     0.137229
      4 C                    -0.207684
      5 C                    -0.061381
      6 Cl                   -0.017069
      7 C                    -0.199994
      8 C                     0.168548
      9 C                    -0.359214
     10 C                     0.588220
     11 F                    -0.222167
     12 F                    -0.247440
     13 C                     0.222035
     14 O                    -0.531155
     15 C                    -0.042186
     16 C                    -0.462010
     17 H                     0.148154
     18 H                     0.145001
     19 H                     0.154450
     20 H                     0.152247
     21 H                     0.152838
     22 H                     0.170933
     23 H                     0.152248
     24 H                     0.140362
     25 H                     0.161451
     26 H                     0.148351
     27 H                     0.162685
  ----------------------------------------
  Sum of atomic charges =     0.000000

                    Cartesian Multipole Moments
 -----------------------------------------------------------------
    Charge (ESU x 10^10)
                 0.0000
    Dipole Moment (Debye)
         X      -0.7539      Y      -1.1744      Z       1.5278
       Tot       2.0692
    Quadrupole Moments (Debye-Ang)
        XX    -100.9345     XY      -2.7851     YY     -92.9575
        XZ      -4.1945     YZ       0.7599     ZZ     -98.3265

 Total job time:  71.82s(wall), 70.70s(cpu)
        *  Thank you very much for using Q-Chem.  Have a nice day.  *
