 Q-Chem 5.2, Q-Chem, Inc., Pleasanton, CA (2019)
 Q-Chem 5.2.1 for Intel X86 EM64T Linux

User input:
--------------------------------------------------------------
$molecule
0 1
C         3.15021728650000   -2.56928925770000    0.36703966350000
C         1.99664366010000   -2.33603719860000   -0.24817787470000
C         1.18045930380000   -1.12742814790000   -0.13649058660000
C        -0.20465211050000   -1.28750140100000   -0.13133940120000
C        -1.07666684150000   -0.22003639280000    0.00028773400000
C        -2.58975582850000   -0.37500341440000    0.01959293320000
C        -3.03446672770000   -1.83387403460000   -0.11401073130000
C        -3.13624865410000    0.17050156640000    1.34622814110000
C        -3.18691960920000    0.41671574200000   -1.15230440590000
C        -0.51473756490000    1.04569424600000    0.12263883990000
C         0.85604609820000    1.25842160580000    0.09350244610000
C         1.39250540530000    2.61039329370000    0.25507674590000
C         0.81722323870000    3.71777636450000   -0.19455815880000
C         1.72796541320000    0.16298840660000   -0.05662092900000
N         3.09394400580000    0.36927429320000   -0.12821565840000
H         3.67207888590000   -3.50382733780000    0.24235262590000
H         3.59225000940000   -1.86392735760000    1.05018800050000
H         1.56428280520000   -3.11604298480000   -0.86533517240000
H        -0.58040206320000   -2.29474743410000   -0.21635780060000
H        -2.65488931990000   -2.43460205330000    0.70931971150000
H        -2.69518302240000   -2.26201969560000   -1.05444918770000
H        -4.12146450320000   -1.88529037090000   -0.09450334300000
H        -2.69744243220000   -0.36912308660000    2.18292409140000
H        -4.21711596380000    0.05007969480000    1.38539719120000
H        -2.90725522550000    1.22581131180000    1.46511765920000
H        -2.79181325180000    0.04599407210000   -2.09601385110000
H        -2.94873193040000    1.47399189260000   -1.07576543820000
H        -4.26991261100000    0.31104990630000   -1.16562768990000
H        -1.14956851690000    1.90713724860000    0.26064679210000
H         2.32550961550000    2.68260360000000    0.80166365170000
H        -0.09871092430000    3.69671493260000   -0.76124293450000
H         1.24720235050000    4.68998554440000   -0.02231369530000
H         3.37285568540000    1.27784409460000   -0.46312557070000
H         3.61264508430000   -0.39374856950000   -0.53723979930000
$end

$rem
BASIS = 6-31G*
GUI = 2
METHOD = B3LYP
PRINT_ORBITALS false
MOLDEN_FORMAT false
--------------------------------------------------------------

             Standard Nuclear Orientation (Angstroms)
    I     Atom           X                Y                Z
 ----------------------------------------------------------------
    1      C       3.1977736692     2.5731703950    -0.3638611100
    2      C       2.0442171064     2.3369599381     0.2502586913
    3      C       1.2307945842     1.1266273226     0.1370970739
    4      C      -0.1546622379     1.2836460507     0.1309226068
    5      C      -1.0242103818     0.2143472317    -0.0021300092
    6      C      -2.5376216181     0.3659867306    -0.0225663355
    7      C      -2.9856612869     1.8237821987     0.1116500490
    8      C      -3.0818278003    -0.1798334941    -1.3500116191
    9      C      -3.1339902520    -0.4278344102     1.1483135156
   10      C      -0.4593882772    -1.0500575623    -0.1248690093
   11      C       0.9118375550    -1.2597779693    -0.0947562552
   12      C       1.4514121306    -2.6104535029    -0.2567968916
   13      C       0.8782103788    -3.7194050588     0.1916276647
   14      C       1.7812134629    -0.1625236481     0.0568112180
   15      N       3.1475854292    -0.3658416791     0.1293826709
   16      H       3.7174688057     3.5087743510    -0.2381232389
   17      H       3.6419190833     1.8692442603    -1.0471200921
   18      H       1.6096324762     3.1155953646     0.8675844863
   19      H      -0.5327043925     2.2900029427     0.2163079788
   20      H      -2.6067406555     2.4258986481    -0.7109684017
   21      H      -2.6480899319     2.2520450014     1.0526512084
   22      H      -4.0727536883     1.8728119952     0.0912899967
   23      H      -2.6435327160     0.3613194594    -2.1859881018
   24      H      -4.1629261001    -0.0617716280    -1.3899821678
   25      H      -2.8504080483    -1.2345552127    -1.4694199995
   26      H      -2.7404722725    -0.0568744140     2.0925928112
   27      H      -2.8934064318    -1.4845306337     1.0712618500
   28      H      -4.2172244165    -0.3245684350     1.1608236681
   29      H      -1.0922029954    -1.9128070754    -0.2639710913
   30      H       2.3850184397    -2.6802375171    -0.8026703945
   31      H      -0.0382293657    -3.7007455795     0.7575787477
   32      H       1.3104752346    -4.6905469883     0.0190839649
   33      H       3.4282296342    -1.2740179753     0.4639123462
   34      H       3.6642671394     0.3980498598     0.5393401966
 ----------------------------------------------------------------

    8    -599.6486705024      9.44e-06  Convergence criterion met
 Total energy in the final basis set =     -599.6486705024

                    Orbital Energies (a.u.)
 --------------------------------------------------------------

 Alpha MOs
 -- Occupied --
-14.3348 -10.2207 -10.1908 -10.1889 -10.1868 -10.1812 -10.1808 -10.1768
-10.1754 -10.1744 -10.1741 -10.1723 -10.1654 -10.1646 -10.1637  -0.9224
 -0.8495  -0.8095  -0.8010  -0.7620  -0.7161  -0.7095  -0.6812  -0.6803
 -0.6236  -0.6146  -0.5837  -0.5481  -0.5278  -0.5172  -0.5040  -0.4685
 -0.4579  -0.4554  -0.4419  -0.4353  -0.4287  -0.4190  -0.4040  -0.3958
 -0.3900  -0.3772  -0.3713  -0.3683  -0.3617  -0.3593  -0.3363  -0.3288
 -0.3138  -0.3085  -0.2980  -0.2964  -0.2693  -0.2170  -0.1889

          Ground-State Mulliken Net Atomic Charges

     Atom                 Charge (a.u.)
  ----------------------------------------
      1 C                    -0.367240
      2 C                    -0.144788
      3 C                     0.155587
      4 C                    -0.293752
      5 C                     0.203692
      6 C                     0.005672
      7 C                    -0.453800
      8 C                    -0.436836
      9 C                    -0.435044
     10 C                    -0.275085
     11 C                     0.147224
     12 C                    -0.154135
     13 C                    -0.339041
     14 C                     0.176030
     15 N                    -0.813915
     16 H                     0.140004
     17 H                     0.164748
     18 H                     0.133200
     19 H                     0.121189
     20 H                     0.145448
     21 H                     0.142801
     22 H                     0.139345
     23 H                     0.146845
     24 H                     0.134851
     25 H                     0.143246
     26 H                     0.144706
     27 H                     0.139728
     28 H                     0.135474
     29 H                     0.123601
     30 H                     0.137898
     31 H                     0.142911
     32 H                     0.139795
     33 H                     0.324069
     34 H                     0.325575
  ----------------------------------------
  Sum of atomic charges =     0.000000

                    Cartesian Multipole Moments
 -----------------------------------------------------------------
    Charge (ESU x 10^10)
                 0.0000
    Dipole Moment (Debye)
         X       0.7561      Y      -0.1237      Z       0.9839
       Tot       1.2470
    Quadrupole Moments (Debye-Ang)
        XX     -83.2047     XY      -0.8709     YY     -86.3500
        XZ       2.4007     YZ       0.6099     ZZ     -94.5123

 Total job time:  52.64s(wall), 52.48s(cpu)
        *  Thank you very much for using Q-Chem.  Have a nice day.  *
