 Q-Chem 5.4, Q-Chem, Inc., Pleasanton, CA (2021)
 Q-Chem 5.4.2 for Intel X86 EM64T Linux

User input:
--------------------------------------------------------------
$molecule
0 1
C            3.13745085390000       -1.86550933850000       -0.72818885480000
C            2.24536546780000       -1.90976842760000        0.24938497070000
C            0.92780747850000       -1.26811805010000        0.19989206500000
C           -0.18056059030000       -2.02805642790000        0.57102200270000
C           -1.46695527320000       -1.54151129670000        0.45160419640000
C           -1.65823834740000       -0.26303615110000       -0.05418501830000
C           -3.03581050350000        0.31184449000000       -0.21623636860000
F           -4.01182710500000       -0.58316331760000       -0.01883670800000
F           -3.26766991540000        1.32243729180000        0.64449266590000
F           -3.23037499850000        0.82454569240000       -1.44529812970000
C           -0.57104772290000        0.52498750840000       -0.39835891750000
C            0.72681930440000        0.04445701290000       -0.25582857880000
C            1.82149668740000        0.97109058710000       -0.55870078200000
C            2.88869594400000        1.16167203220000        0.19725109670000
F            3.17976568930000        0.53656917750000        1.32897003480000
F            3.84315870810000        2.04343675000000       -0.07746746250000
H            4.07198872530000       -2.39469915590000       -0.66186187270000
H            2.96311728990000       -1.31120321860000       -1.63583794140000
H            2.43322621710000       -2.50902983630000        1.13030227450000
H           -0.02426609150000       -3.03026982150000        0.94065906600000
H           -2.31350626420000       -2.14675026360000        0.73535152700000
H           -0.73410576610000        1.52755312470000       -0.76502885890000
H            1.71244642990000        1.61139986270000       -1.42089403050000
$end

$rem
BASIS = 6-31G*
GUI = 2
METHOD = B3LYP
PRINT_ORBITALS false
MOLDEN_FORMAT false
$end
--------------------------------------------------------------

             Standard Nuclear Orientation (Angstroms)
    I     Atom           X                Y                Z
 ----------------------------------------------------------------
    1      C      -3.0371946883    -1.7325053464     1.0588770555
    2      C      -2.1934562454    -1.8788950710     0.0488764239
    3      C      -0.8796448575    -1.2331355450    -0.0348975650
    4      C       0.2147188080    -2.0261698429    -0.3772253533
    5      C       1.5019105163    -1.5272489814    -0.3735460399
    6      C       1.7084934370    -0.2018364871    -0.0164524122
    7      C       3.0881994965     0.3896284307     0.0157015470
    8      F       4.0597879426    -0.5194631669    -0.1332359115
    9      F       3.2707008672     1.3032866709    -0.9578655738
   10      F       3.3387067005     1.0306211434     1.1722849471
   11      C       0.6337699232     0.6162938609     0.2950801180
   12      C      -0.6660479523     0.1208713667     0.2683721049
   13      C      -1.7512446387     1.0724128866     0.5245298939
   14      C      -2.8553011857     1.1794220321    -0.1940151410
   15      F      -3.1966599200     0.4368468882    -1.2372405724
   16      F      -3.8015044021     2.0836174103     0.0320571122
   17      H      -3.9700683157    -2.2675124302     1.0951590079
   18      H      -2.8228338151    -1.0843980380     1.8928318884
   19      H      -2.4197072811    -2.5688819733    -0.7530897454
   20      H       0.0477454909    -3.0623309094    -0.6301707445
   21      H       2.3379276799    -2.1576553195    -0.6326569931
   22      H       0.8073516744     1.6525020565     0.5447089172
   23      H      -1.6049118058     1.8010722828     1.3074138643
 ----------------------------------------------------------------

    9    -922.5412389248      3.65e-06  Convergence criterion met
 Total energy in the final basis set =     -922.5412389248

                    Orbital Energies (a.u.)
 --------------------------------------------------------------

 Alpha MOs
 -- Occupied --
-24.7435 -24.7395 -24.7247 -24.7184 -24.7156 -10.4286 -10.3609 -10.2207
-10.2165 -10.2147 -10.2091 -10.2080 -10.2064 -10.2041 -10.2002 -10.1893
 -1.3042  -1.2885  -1.2282  -1.2150  -1.2083  -0.8917  -0.8265  -0.8070
 -0.7624  -0.7524  -0.6956  -0.6557  -0.6338  -0.6238  -0.5829  -0.5816
 -0.5777  -0.5733  -0.5705  -0.5232  -0.5142  -0.5027  -0.4816  -0.4640
 -0.4556  -0.4531  -0.4512  -0.4441  -0.4405  -0.4355  -0.4189  -0.4180
 -0.4160  -0.4092  -0.3929  -0.3838  -0.3757  -0.3687  -0.3554  -0.3005
 -0.2979  -0.2566  -0.2317

          Ground-State Mulliken Net Atomic Charges

     Atom                 Charge (a.u.)
  ----------------------------------------
      1 C                    -0.325089
      2 C                    -0.145168
      3 C                     0.115089
      4 C                    -0.190156
      5 C                    -0.158223
      6 C                    -0.004172
      7 C                     0.776621
      8 F                    -0.266331
      9 F                    -0.264660
     10 F                    -0.268088
     11 C                    -0.213122
     12 C                     0.116982
     13 C                    -0.353212
     14 C                     0.586708
     15 F                    -0.230909
     16 F                    -0.243261
     17 H                     0.149596
     18 H                     0.153910
     19 H                     0.143926
     20 H                     0.140057
     21 H                     0.155076
     22 H                     0.153924
     23 H                     0.170502
  ----------------------------------------
  Sum of atomic charges =     0.000000

                    Cartesian Multipole Moments
 -----------------------------------------------------------------
    Charge (ESU x 10^10)
                 0.0000
    Dipole Moment (Debye)
         X      -1.7324      Y      -1.3140      Z       0.4524
       Tot       2.2209
    Quadrupole Moments (Debye-Ang)
        XX     -94.6228     XY       0.0664     YY     -81.9129
        XZ      -2.4750     YZ       3.3585     ZZ     -87.2272

 Total job time:  76.94s(wall), 68.38s(cpu)
        *  Thank you very much for using Q-Chem.  Have a nice day.  *
