 Q-Chem 5.4, Q-Chem, Inc., Pleasanton, CA (2021)
 Q-Chem 5.4.2 for Intel X86 EM64T Linux

User input:
--------------------------------------------------------------
$molecule
0 1
C           -3.15073322600000        2.23305543930000        1.00566544480000
C           -3.04358345990000        1.19988652800000        0.18132653800000
C           -1.87460522530000        0.32678681990000        0.05855635060000
C           -2.09243951510000       -1.01271076060000       -0.26000199010000
C           -1.03272764030000       -1.89669154950000       -0.33794627180000
Cl          -1.33447346710000       -3.55475084470000       -0.71855436470000
C            0.26531061490000       -1.47760657740000       -0.11284297070000
C            0.51588147330000       -0.13713036210000        0.17550518880000
C            1.85226748450000        0.38411963350000        0.41614399220000
C            3.01536875750000       -0.22715560760000        0.25522904200000
F            3.23941182550000       -1.46353005670000       -0.17189303490000
F            4.18359259490000        0.35916667310000        0.50575184450000
C           -0.55900697120000        0.76774630270000        0.25718186490000
O           -0.28232367700000        2.08829850520000        0.53063876400000
C           -0.31222533480000        2.94130458340000       -0.60849620660000
C           -0.06534940890000        4.36496809270000       -0.14067990560000
H           -4.05686278850000        2.81251738360000        1.06098303600000
H           -2.34478580510000        2.52755120900000        1.65490192450000
H           -3.88809761480000        0.90875813410000       -0.43161073220000
H           -3.09933371290000       -1.36340292720000       -0.42644833330000
H            1.07072464110000       -2.19009330850000       -0.16658787280000
H            1.89800945530000        1.40383727740000        0.77032334290000
H           -1.28626222910000        2.86393304530000       -1.10936099510000
H            0.46726173900000        2.62777312870000       -1.31892903850000
H           -0.85117303430000        4.67344372660000        0.54297314850000
H           -0.05268142620000        5.03516459600000       -0.99520013340000
H            0.88841336360000        4.42826165270000        0.37603857450000
$end

$rem
BASIS = 6-31G*
GUI = 2
METHOD = B3LYP
PRINT_ORBITALS false
MOLDEN_FORMAT false
$end
--------------------------------------------------------------

             Standard Nuclear Orientation (Angstroms)
    I     Atom           X                Y                Z
 ----------------------------------------------------------------
    1      C       3.2526137194     1.9097518153     0.8776373874
    2      C       2.1957282983     2.2847179358     0.1699317140
    3      C       0.9202579013     1.5689723153     0.1008722812
    4      C      -0.2418110286     2.3222928009    -0.0581529068
    5      C      -1.4795187832     1.7073149338    -0.0773451176
    6      Cl     -2.9038943621     2.6680954846    -0.2593578482
    7      C      -1.5979458274     0.3358657536     0.0503623736
    8      C      -0.4507298271    -0.4454161917     0.1780372354
    9      C      -0.4899960676    -1.8935228995     0.3083495056
   10      C      -1.5276302777    -2.7042105216     0.1724950309
   11      F      -2.7821732385    -2.3874896692    -0.1225646316
   12      F      -1.4392939963    -4.0248489741     0.3117545186
   13      C       0.8124426579     0.1749111738     0.1991857276
   14      O       1.9297276967    -0.6212310692     0.3133001944
   15      C       2.6206884134    -0.8403565593    -0.9117301185
   16      C       3.8608538152    -1.6652980666    -0.6149492437
   17      H       4.1490682418     2.5061255979     0.9024278171
   18      H       3.2546334604     1.0043571700     1.4590524432
   19      H       2.2153910207     3.2212135251    -0.3743488987
   20      H      -0.1725906956     3.3955922529    -0.1462559053
   21      H      -2.5752245889    -0.1159335407     0.0457547632
   22      H       0.4524841837    -2.3659146790     0.5448582710
   23      H       2.8969567221     0.1214614964    -1.3635947133
   24      H       1.9605922883    -1.3739009758    -1.6118874874
   25      H       4.5165508248    -1.1218376009     0.0594168581
   26      H       4.3927593848    -1.8737692182    -1.5386076733
   27      H       3.5812488892    -2.6042558617    -0.1450058078
 ----------------------------------------------------------------

    9   -1198.9448189236      5.02e-06  Convergence criterion met
 Total energy in the final basis set =    -1198.9448189236

                    Orbital Energies (a.u.)
 --------------------------------------------------------------

 Alpha MOs
 -- Occupied --
******** -24.7478 -24.7372 -19.1729 -10.3607 -10.2520 -10.2496 -10.2430
-10.2169 -10.2098 -10.2038 -10.2020 -10.2011 -10.1990 -10.1856 -10.1841
 -9.4653  -7.2292  -7.2196  -7.2191  -1.2892  -1.2279  -1.0652  -0.9003
 -0.8521  -0.8231  -0.7812  -0.7745  -0.7409  -0.7178  -0.6559  -0.6431
 -0.6241  -0.6065  -0.5785  -0.5678  -0.5328  -0.5226  -0.5217  -0.5108
 -0.4769  -0.4703  -0.4641  -0.4465  -0.4441  -0.4437  -0.4396  -0.4279
 -0.4147  -0.4020  -0.3985  -0.3917  -0.3841  -0.3771  -0.3603  -0.3497
 -0.3375  -0.3199  -0.3124  -0.2809  -0.2754  -0.2321  -0.2253

          Ground-State Mulliken Net Atomic Charges

     Atom                 Charge (a.u.)
  ----------------------------------------
      1 C                    -0.333037
      2 C                    -0.146081
      3 C                     0.164590
      4 C                    -0.214802
      5 C                    -0.057248
      6 Cl                   -0.015398
      7 C                    -0.220061
      8 C                     0.165588
      9 C                    -0.298303
     10 C                     0.549851
     11 F                    -0.233249
     12 F                    -0.245713
     13 C                     0.211444
     14 O                    -0.539287
     15 C                    -0.032156
     16 C                    -0.460037
     17 H                     0.143124
     18 H                     0.170658
     19 H                     0.137073
     20 H                     0.151121
     21 H                     0.161210
     22 H                     0.181750
     23 H                     0.146921
     24 H                     0.136202
     25 H                     0.162496
     26 H                     0.152693
     27 H                     0.160653
  ----------------------------------------
  Sum of atomic charges =     0.000000

                    Cartesian Multipole Moments
 -----------------------------------------------------------------
    Charge (ESU x 10^10)
                 0.0000
    Dipole Moment (Debye)
         X       2.7197      Y      -0.1863      Z      -0.8699
       Tot       2.8615
    Quadrupole Moments (Debye-Ang)
        XX     -95.0484     XY       2.3741     YY     -97.9526
        XZ      -2.5075     YZ       0.2308     ZZ     -98.5578

 Total job time:  69.61s(wall), 67.77s(cpu)
        *  Thank you very much for using Q-Chem.  Have a nice day.  *
