 Q-Chem 5.2, Q-Chem, Inc., Pleasanton, CA (2019)
 Q-Chem 5.2.1 for Intel X86 EM64T Linux

User input:
--------------------------------------------------------------
$molecule
0 1
C         3.86525082180000   -1.75552989600000    0.13870379820000
C         3.51397822020000   -0.47953324910000    0.03081764110000
C         2.15535832750000    0.04072301220000   -0.02536392290000
C         1.01062837080000   -0.76189952870000    0.00732552060000
C        -0.23299221220000   -0.15814614180000   -0.04199093450000
C        -1.47147069670000   -1.01299592200000    0.01696504440000
F        -1.19986377490000   -2.30832384890000    0.23008580350000
F        -2.31173510170000   -0.64138035240000    0.99865514610000
F        -2.18386755770000   -0.96779947320000   -1.12590056010000
C        -0.33962977160000    1.23805853920000   -0.12652916670000
C        -1.61933105640000    1.93208983890000   -0.18644532210000
C        -1.82306062750000    3.15551371050000    0.28620210670000
C         0.87709358570000    1.93249318780000   -0.16887791460000
N         2.05864274150000    1.36822373690000   -0.11702060620000
H         4.90104929130000   -2.04565067950000    0.17344337630000
H         3.14993289440000   -2.55825522260000    0.19756731620000
H         4.26698801790000    0.29451039310000   -0.02241751720000
H         1.08934496180000   -1.83431147950000    0.07549666950000
H        -2.43958753310000    1.39214990390000   -0.63860058830000
H        -1.04872000530000    3.71831013710000    0.77956635670000
H        -2.78752514470000    3.62691185490000    0.21592729720000
H         0.87999147780000    3.00935253010000   -0.26868149840000
$end

$rem
BASIS = 6-31G*
GUI = 2
METHOD = B3LYP
PRINT_ORBITALS false
MOLDEN_FORMAT false
--------------------------------------------------------------

             Standard Nuclear Orientation (Angstroms)
    I     Atom           X                Y                Z
 ----------------------------------------------------------------
    1      C       4.1182476608    -0.8487700816     0.1236109368
    2      C       3.4737513320     0.3081609405     0.0269962454
    3      C       2.0303577634     0.4912370890    -0.0256258831
    4      C       1.1091237454    -0.5606226833    -0.0011898452
    5      C      -0.2423902550    -0.2691846847    -0.0460921719
    6      C      -1.2422463475    -1.3942828468     0.0040559167
    7      F      -0.6704028853    -2.5898651351     0.2056576596
    8      F      -2.1454374668    -1.2417880894     0.9883571961
    9      F      -1.9464986205    -1.5093327214    -1.1389602944
   10      C      -0.6777823508     1.0624158264    -0.1180615733
   11      C      -2.0858053696     1.4330670426    -0.1727755883
   12      C      -2.5737239882     2.5687552924     0.3107685367
   13      C       0.3390732123     2.0263802413    -0.1530758043
   14      N       1.6209161015     1.7585248077    -0.1053277633
   15      H       5.1933607248    -0.8848092009     0.1566027291
   16      H       3.6141905542    -1.7989493523     0.1745853206
   17      H       4.0212425273     1.2393846999    -0.0185778541
   18      H       1.4404493091    -1.5841999634     0.0573244446
   19      H      -2.7549034780     0.7178114318    -0.6305062277
   20      H      -1.9546025501     3.2949325487     0.8098744747
   21      H      -3.6226584649     2.7981412552     0.2439470731
   22      H       0.0859270033     3.0739516255    -0.2431112861
 ----------------------------------------------------------------

    9    -740.1174073685      3.89e-06  Convergence criterion met
 Total energy in the final basis set =     -740.1174073685

                    Orbital Energies (a.u.)
 --------------------------------------------------------------

 Alpha MOs
 -- Occupied --
-24.7330 -24.7290 -24.7278 -14.3379 -10.4397 -10.2396 -10.2330 -10.2319
-10.2223 -10.2146 -10.2045 -10.1973 -10.1952 -10.1942  -1.3145  -1.2236
 -1.2200  -0.9651  -0.8531  -0.8197  -0.7896  -0.7390  -0.7180  -0.6716
 -0.6444  -0.6015  -0.5935  -0.5883  -0.5876  -0.5453  -0.5189  -0.4897
 -0.4759  -0.4699  -0.4657  -0.4604  -0.4555  -0.4340  -0.4249  -0.4199
 -0.4145  -0.4033  -0.4019  -0.3843  -0.3735  -0.3653  -0.3356  -0.3029
 -0.2860  -0.2638  -0.2335

          Ground-State Mulliken Net Atomic Charges

     Atom                 Charge (a.u.)
  ----------------------------------------
      1 C                    -0.345413
      2 C                    -0.088914
      3 C                     0.302572
      4 C                    -0.217559
      5 C                    -0.033343
      6 C                     0.799034
      7 F                    -0.264021
      8 F                    -0.262476
      9 F                    -0.265442
     10 C                     0.092114
     11 C                    -0.122806
     12 C                    -0.336597
     13 C                    -0.009448
     14 N                    -0.474252
     15 H                     0.155065
     16 H                     0.148652
     17 H                     0.150547
     18 H                     0.159455
     19 H                     0.157284
     20 H                     0.153163
     21 H                     0.154366
     22 H                     0.148017
  ----------------------------------------
  Sum of atomic charges =     0.000000

                    Cartesian Multipole Moments
 -----------------------------------------------------------------
    Charge (ESU x 10^10)
                 0.0000
    Dipole Moment (Debye)
         X       0.2964      Y       0.2949      Z       0.0602
       Tot       0.4224
    Quadrupole Moments (Debye-Ang)
        XX     -72.7537     XY      -8.3812     YY     -76.8627
        XZ       0.7679     YZ       0.7724     ZZ     -80.8361

 Total job time:  33.38s(wall), 33.27s(cpu)
        *  Thank you very much for using Q-Chem.  Have a nice day.  *
