 Q-Chem 5.2, Q-Chem, Inc., Pleasanton, CA (2019)
 Q-Chem 5.2.1 for Intel X86 EM64T Linux

User input:
--------------------------------------------------------------
$molecule
0 1
C        -4.58827212670000   -1.22959914600000   -0.64690235090000
C        -3.78700539070000   -0.19702418350000   -0.41443236660000
C        -2.36802523020000   -0.25150591800000   -0.08463665290000
C        -1.66349816600000   -1.44595064490000    0.07368527090000
C        -0.32599127260000   -1.42731879670000    0.40639076750000
C         0.36828159310000   -0.23432596620000    0.56904579520000
C         1.81832022640000   -0.28511251770000    0.96100904050000
C         2.72741688980000   -0.49478083730000   -0.24406833600000
O         2.36060165220000   -0.80721457460000   -1.33579247700000
O         4.03948620790000   -0.31675160180000    0.01768019480000
C        -0.31145005280000    0.97337122050000    0.38403453650000
C         0.32685731730000    2.29058999890000    0.49233767520000
C         1.47429851480000    2.63639727850000   -0.07258403630000
C        -1.67094966940000    0.94054603480000    0.08829732440000
H        -5.62804230820000   -1.08733308480000   -0.88693471890000
H        -4.24965389680000   -2.25073172070000   -0.61326588460000
H        -4.19553883120000    0.80497471910000   -0.47124511680000
H        -2.16397297860000   -2.39275657860000   -0.05215466960000
H         0.20066171300000   -2.36129693550000    0.54111723840000
H         1.98635861690000   -1.13273649150000    1.63432359990000
H         2.10985687470000    0.63439526370000    1.47592891380000
H         4.20974550770000   -0.06769360800000    0.93527187110000
H        -0.24567351320000    3.03109884660000    1.03909714650000
H         2.04207744770000    1.95232361550000   -0.68090644670000
H         1.86880009720000    3.63496742560000    0.01647319400000
H        -2.19452260120000    1.87921560010000   -0.03438962750000
$end

$rem
BASIS = 6-31G*
GUI = 2
METHOD = B3LYP
PRINT_ORBITALS false
MOLDEN_FORMAT false
--------------------------------------------------------------

             Standard Nuclear Orientation (Angstroms)
    I     Atom           X                Y                Z
 ----------------------------------------------------------------
    1      C       4.7047075274    -0.6976542415     0.3644374829
    2      C       3.7688663771     0.2398084875     0.2769920596
    3      C       2.3541502591     0.0354228186    -0.0094393839
    4      C       1.7999671048    -1.2170728469    -0.2782479790
    5      C       0.4565680525    -1.3383999155    -0.5620146292
    6      C      -0.3902720336    -0.2363324552    -0.5655565255
    7      C      -1.8391903884    -0.4344518085    -0.9122708471
    8      C      -2.6559329921    -0.8902970493     0.2909604967
    9      O      -2.2008888967    -1.2677280587     1.3275465100
   10      O      -3.9909523979    -0.8588526763     0.0948303483
   11      C       0.1389356892     1.0230916666    -0.2679211135
   12      C      -0.6656109803     2.2490669740    -0.2053081687
   13      C      -1.8194048691     2.3783488066     0.4329601028
   14      C       1.5041628948     1.1373032275    -0.0232016915
   15      H       5.7283034024    -0.4468562000     0.5842761222
   16      H       4.4970352815    -1.7447695554     0.2268612848
   17      H       4.0493391684     1.2747464403     0.4330930165
   18      H       2.4218358127    -2.0979984469    -0.2769822061
   19      H       0.0467303506    -2.3134102602    -0.7838651168
   20      H      -1.9303182399    -1.2192362019    -1.6711285203
   21      H      -2.2691195692     0.4889369428    -1.3099450438
   22      H      -4.2349228240    -0.5368486045    -0.7825432362
   23      H      -0.2182591164     3.1129013484    -0.6835939706
   24      H      -2.2662691788     1.5641171890     0.9786019356
   25      H      -2.3410853254     3.3202308753     0.4705459740
   26      H       1.9097807464     2.1178303687     0.1873260733
 ----------------------------------------------------------------

    9    -614.9111053852      4.90e-06  Convergence criterion met
 Total energy in the final basis set =     -614.9111053852

                    Orbital Energies (a.u.)
 --------------------------------------------------------------

 Alpha MOs
 -- Occupied --
-19.1960 -19.1343 -10.3190 -10.2102 -10.2003 -10.1980 -10.1966 -10.1953
-10.1903 -10.1884 -10.1878 -10.1871 -10.1861 -10.1799  -1.1051  -1.0240
 -0.8743  -0.8153  -0.7904  -0.7644  -0.7359  -0.7063  -0.6356  -0.6213
 -0.6075  -0.5914  -0.5418  -0.5207  -0.5016  -0.4953  -0.4732  -0.4644
 -0.4538  -0.4389  -0.4343  -0.4237  -0.4127  -0.4002  -0.3893  -0.3798
 -0.3690  -0.3644  -0.3424  -0.3359  -0.3187  -0.3053  -0.2827  -0.2733
 -0.2394  -0.2212

          Ground-State Mulliken Net Atomic Charges

     Atom                 Charge (a.u.)
  ----------------------------------------
      1 C                    -0.353319
      2 C                    -0.111190
      3 C                     0.187857
      4 C                    -0.180671
      5 C                    -0.169828
      6 C                     0.162048
      7 C                    -0.524813
      8 C                     0.613106
      9 O                    -0.426800
     10 O                    -0.565528
     11 C                     0.108784
     12 C                    -0.147035
     13 C                    -0.352297
     14 C                    -0.264947
     15 H                     0.144986
     16 H                     0.143671
     17 H                     0.127165
     18 H                     0.128756
     19 H                     0.127773
     20 H                     0.182005
     21 H                     0.174134
     22 H                     0.413326
     23 H                     0.139978
     24 H                     0.169609
     25 H                     0.145998
     26 H                     0.127233
  ----------------------------------------
  Sum of atomic charges =     0.000000

                    Cartesian Multipole Moments
 -----------------------------------------------------------------
    Charge (ESU x 10^10)
                 0.0000
    Dipole Moment (Debye)
         X      -0.1349      Y       1.4335      Z      -3.6665
       Tot       3.9390
    Quadrupole Moments (Debye-Ang)
        XX     -73.7438     XY      -4.4530     YY     -75.9824
        XZ      11.8285     YZ       4.7499     ZZ     -85.7810

 Total job time:  38.95s(wall), 38.81s(cpu)
        *  Thank you very much for using Q-Chem.  Have a nice day.  *
