 Q-Chem 5.2, Q-Chem, Inc., Pleasanton, CA (2019)
 Q-Chem 5.2.1 for Intel X86 EM64T Linux

User input:
--------------------------------------------------------------
$molecule
0 1
C         4.78551324880000    0.07568071640000    0.09838112180000
C         3.58786515560000    0.64882041170000    0.05730949410000
C         2.30192615250000   -0.03095730640000   -0.01155447970000
C         2.16109987710000   -1.42311281470000   -0.03609909740000
C         0.92090860160000   -2.02151504110000   -0.09303311050000
C        -0.25571675040000   -1.26338358390000   -0.13473483770000
C        -1.58196645270000   -1.86098321210000   -0.18413350080000
C        -1.87934172300000   -3.07481161020000    0.26579229820000
C        -0.09640913470000    0.11876056280000   -0.12721809420000
S        -1.49336012720000    1.20416651730000   -0.14608664910000
O        -1.09471168540000    2.55538297000000    0.03321858750000
O        -2.46202678090000    0.88329286450000   -1.13579079660000
F        -2.16586536120000    0.74179110590000    1.28972290450000
C         1.13202757530000    0.73123492120000   -0.05639032350000
H         5.68318882690000    0.66684060020000    0.14939133810000
H         4.92607004250000   -0.99139830510000    0.08307810390000
H         3.51929766090000    1.72879697220000    0.07533705150000
H         3.04036956690000   -2.04747775860000   -0.00898456790000
H         0.85128608810000   -3.09772435080000   -0.12147076400000
H        -2.35366432480000   -1.23154691760000   -0.60118356020000
H        -1.14942225880000   -3.71861183190000    0.72831185750000
H        -2.88236904710000   -3.45932226690000    0.20777915610000
H         1.16221735010000    1.80927268370000   -0.03208698430000
$end

$rem
BASIS = 6-31G*
GUI = 2
METHOD = B3LYP
PRINT_ORBITALS false
MOLDEN_FORMAT false
--------------------------------------------------------------

             Standard Nuclear Orientation (Angstroms)
    I     Atom           X                Y                Z
 ----------------------------------------------------------------
    1      C       4.6958724311     0.4792881089     0.0775592788
    2      C       3.4582109735     0.9610933890     0.0531721379
    3      C       2.2266644268     0.1875367314    -0.0201921135
    4      C       2.1909016337    -1.2106633409    -0.0680357954
    5      C       0.9989268698    -1.8998388569    -0.1283215854
    6      C      -0.2317064258    -1.2319989301    -0.1502551953
    7      C      -1.5095014276    -1.9269906206    -0.2025074689
    8      C      -1.7115049743    -3.1671895585     0.2280106116
    9      C      -0.1768793520     0.1579000213    -0.1197141256
   10      S      -1.6516932278     1.1350373280    -0.1119103311
   11      O      -1.3546912048     2.5092572162     0.0885051057
   12      O      -2.6002831982     0.7587393116    -1.1015396343
   13      F      -2.2775052695     0.5991595579     1.3194518484
   14      C       1.0024111466     0.8599853071    -0.0452269812
   15      H       5.5468164945     1.1355141559     0.1337292896
   16      H       4.9162725870    -0.5737442372     0.0429951051
   17      H       3.3086416829     2.0323674364     0.0902775029
   18      H       3.1148568483    -1.7673141213    -0.0566939070
   19      H       1.0103459991    -2.9776023240    -0.1749904742
   20      H      -2.3292770331    -1.3506072060    -0.6042393728
   21      H      -0.9319914288    -3.7618098852     0.6751915502
   22      H      -2.6831085142    -3.6252106255     0.1690102206
   23      H       0.9515058475     1.9366678098    -0.0024376010
 ----------------------------------------------------------------

    9   -1034.8531461592      7.10e-06  Convergence criterion met
 Total energy in the final basis set =    -1034.8531461592

                    Orbital Energies (a.u.)
 --------------------------------------------------------------

 Alpha MOs
 -- Occupied --
-89.1497 -24.7191 -19.1734 -19.1732 -10.2462 -10.2349 -10.2254 -10.2239
-10.2200 -10.2183 -10.2101 -10.2042 -10.2000 -10.1996  -8.1745  -6.1410
 -6.1382  -6.1365  -1.2317  -1.1294  -1.0480  -0.9065  -0.8371  -0.8049
 -0.7858  -0.7452  -0.6967  -0.6618  -0.6320  -0.5947  -0.5900  -0.5476
 -0.5263  -0.5184  -0.5066  -0.4884  -0.4839  -0.4664  -0.4488  -0.4412
 -0.4341  -0.4310  -0.4136  -0.4062  -0.3980  -0.3875  -0.3770  -0.3671
 -0.3490  -0.3412  -0.3408  -0.3260  -0.2943  -0.2858  -0.2374

          Ground-State Mulliken Net Atomic Charges

     Atom                 Charge (a.u.)
  ----------------------------------------
      1 C                    -0.348626
      2 C                    -0.110387
      3 C                     0.184057
      4 C                    -0.170444
      5 C                    -0.174063
      6 C                     0.183661
      7 C                    -0.153924
      8 C                    -0.343228
      9 C                    -0.251461
     10 S                     1.226872
     11 O                    -0.455082
     12 O                    -0.468654
     13 F                    -0.325441
     14 C                    -0.232824
     15 H                     0.156640
     16 H                     0.148329
     17 H                     0.141921
     18 H                     0.143933
     19 H                     0.148199
     20 H                     0.200127
     21 H                     0.149067
     22 H                     0.160512
     23 H                     0.190816
  ----------------------------------------
  Sum of atomic charges =     0.000000

                    Cartesian Multipole Moments
 -----------------------------------------------------------------
    Charge (ESU x 10^10)
                 0.0000
    Dipole Moment (Debye)
         X       4.1845      Y      -3.1549      Z       0.2212
       Tot       5.2452
    Quadrupole Moments (Debye-Ang)
        XX     -82.8830     XY       5.7038     YY     -82.5160
        XZ      -0.9957     YZ      -0.5984     ZZ     -91.7434

 Total job time:  38.09s(wall), 37.97s(cpu)
        *  Thank you very much for using Q-Chem.  Have a nice day.  *
