 Q-Chem 5.2, Q-Chem, Inc., Pleasanton, CA (2019)
 Q-Chem 5.2.1 for Intel X86 EM64T Linux

User input:
--------------------------------------------------------------
$molecule
0 1
C        -2.62628057980000    2.31582429570000   -1.66056157350000
C        -1.46232480380000    2.95650136930000   -1.58111394600000
C        -0.21395342930000    2.36268996130000   -1.18393374300000
C         0.04463467930000    1.13593644890000   -0.62967552880000
C         1.40793277680000    0.89317779290000   -0.37833002950000
C         1.88907686590000   -0.40421976090000    0.19207365360000
C         2.09078111390000   -1.43650414220000   -0.92419033160000
C         2.59564295970000   -2.79059787410000   -0.42073692010000
C         1.74215423630000   -3.42924930820000    0.67748833420000
C         0.27722116740000   -3.61293640970000    0.28780331320000
C        -0.54418588420000   -4.16550668710000    1.45022287160000
C        -2.04026210410000   -4.27359745700000    1.14744239910000
C        -2.71436437990000   -2.95964851100000    0.74243933220000
C        -2.51486061210000   -1.82813416740000    1.74891173940000
C        -3.30470467630000   -0.57877945540000    1.36481158270000
C        -3.00672726540000    0.59798759550000    2.29106452110000
C        -3.78223987450000    1.84814855070000    1.89455627680000
C         2.21261694530000    1.94713191100000   -0.75757229300000
C         3.64342099830000    2.04227206990000   -0.67751148950000
C         4.36260883560000    3.08581649560000   -1.08309773460000
S         1.26108859380000    3.25492814240000   -1.40187000820000
H        -3.52533073240000    2.82193433460000   -1.96504780910000
H        -2.71828965060000    1.26682125820000   -1.43836444680000
H        -1.40731089890000    4.00555973590000   -1.84197413760000
H        -0.72692552660000    0.42613092780000   -0.39006108490000
H         1.13893977060000   -0.76762495390000    0.89563607080000
H         2.82448094370000   -0.26663549510000    0.73650232160000
H         2.81545016410000   -1.04024142890000   -1.64032052350000
H         1.14948991470000   -1.56774887340000   -1.46099199440000
H         3.61176995120000   -2.66893652980000   -0.03649792670000
H         2.64679964820000   -3.47176473050000   -1.27371025270000
H         1.79763890980000   -2.81797864360000    1.58100268280000
H         2.17183949040000   -4.40335885820000    0.92477862320000
H         0.20510914050000   -4.28720889760000   -0.56856337210000
H        -0.13535737640000   -2.65070735120000   -0.01021478180000
H        -0.39893060210000   -3.52894295610000    2.32555774690000
H        -0.17204446980000   -5.15959667770000    1.71117237480000
H        -2.54017855390000   -4.66467376760000    2.03720575230000
H        -2.18890845800000   -4.99760528260000    0.34232009150000
H        -3.78551331270000   -3.14802489100000    0.63198846880000
H        -2.34423011000000   -2.64259112530000   -0.23493906740000
H        -1.45650030100000   -1.56699200420000    1.80623011490000
H        -2.82673940900000   -2.16405086460000    2.74058678940000
H        -4.37426874900000   -0.80017795480000    1.39124305260000
H        -3.05704106430000   -0.29762060460000    0.33807559860000
H        -1.93634939350000    0.81734170120000    2.26436000220000
H        -3.26189875430000    0.32009317830000    3.31648453510000
H        -3.50235851810000    2.16913624090000    0.89298587830000
H        -3.57221111190000    2.66207552960000    2.58456513010000
H        -4.85270300850000    1.65388200790000    1.90816158230000
H         4.14051268520000    1.17792754670000   -0.25717931380000
H         3.89670655910000    3.95782590340000   -1.51169203890000
H         5.43489156510000    3.09965460860000   -1.00084163330000
$end

$rem
BASIS = 6-31G*
GUI = 2
METHOD = B3LYP
PRINT_ORBITALS false
MOLDEN_FORMAT false
--------------------------------------------------------------

             Standard Nuclear Orientation (Angstroms)
    I     Atom           X                Y                Z
 ----------------------------------------------------------------
    1      C      -1.1107195515    -3.3438808327    -1.6994546836
    2      C      -2.1920302329    -2.7766485523    -1.1697502029
    3      C      -2.2452204094    -1.4516135153    -0.6127509691
    4      C      -1.2330652364    -0.5758543990    -0.3168083496
    5      C      -1.6703082629     0.6508525541     0.2167613411
    6      C      -0.7138704751     1.7468129192     0.5691787711
    7      C      -0.3968436662     2.5972984285    -0.6671502034
    8      C       0.5684611250     3.7506771337    -0.3846172348
    9      C       1.8898844794     3.3401076792     0.2693631977
   10      C       2.6655617198     2.2888668109    -0.5211061051
   11      C       3.9250651671     1.8493655877     0.2216942898
   12      C       4.6878568124     0.7221447829    -0.4776810371
   13      C       3.8761527257    -0.5531885599    -0.7217395040
   14      C       3.2342301561    -1.1267899383     0.5400172249
   15      C       2.5406233292    -2.4603160134     0.2700328746
   16      C       1.7843746144    -2.9738001542     1.4931181758
   17      C       1.0783874283    -4.2951723754     1.2154519109
   18      C      -3.0435924573     0.7239412875     0.3212082032
   19      C      -3.8385587242     1.8234892845     0.7920419923
   20      C      -5.1680508066     1.8353334488     0.8470586673
   21      S      -3.7875223719    -0.7538282174    -0.2206610661
   22      H      -1.1399626681    -4.3420919834    -2.0992918439
   23      H      -0.1678513743    -2.8289888945    -1.7637236289
   24      H      -3.1288607866    -3.3185031495    -1.1513074518
   25      H      -0.1935408022    -0.8101488425    -0.4618572216
   26      H       0.2033341890     1.2922905432     0.9458936297
   27      H      -1.1235821315     2.3826949728     1.3553741450
   28      H      -1.3306806319     3.0131365126    -1.0544989240
   29      H       0.0136165601     1.9523597155    -1.4462437699
   30      H       0.0740033642     4.4740787688     0.2689550617
   31      H       0.7805717763     4.2546902506    -1.3307401912
   32      H       1.6938877243     2.9590559346     1.2740787756
   33      H       2.5101185312     4.2329646137     0.3824451832
   34      H       2.9355883844     2.6891333597    -1.5009426846
   35      H       2.0282483900     1.4208221501    -0.6800110681
   36      H       3.6527216776     1.5287665182     1.2294486671
   37      H       4.5956668367     2.7060046873     0.3278151592
   38      H       5.5596901400     0.4718066126     0.1320512088
   39      H       5.0542938789     1.0850069147    -1.4412991927
   40      H       4.5453722544    -1.3044888540    -1.1492183696
   41      H       3.0998816406    -0.3583096207    -1.4648536951
   42      H       2.4966909626    -0.4237485520     0.9316496047
   43      H       3.9996588596    -1.2646214542     1.3072519929
   44      H       3.2817431890    -3.2021490878    -0.0367378327
   45      H       1.8394719425    -2.3400893010    -0.5597301130
   46      H       1.0443307337    -2.2301013344     1.7993619736
   47      H       2.4864533462    -3.1019038823     2.3204626567
   48      H       0.3379447935    -4.1738716060     0.4270733457
   49      H       0.5701957811    -4.6510859993     2.1086305984
   50      H       1.7944062738    -5.0524178826     0.9028624520
   51      H      -3.2798527485     2.6936706448     1.1106369873
   52      H      -5.7518817996     0.9866833512     0.5306842063
   53      H      -5.7113467464     2.6908529119     1.2071472418
 ----------------------------------------------------------------

    9   -1179.5616372618      2.33e-06  Convergence criterion met
 Total energy in the final basis set =    -1179.5616372618

                    Orbital Energies (a.u.)
 --------------------------------------------------------------

 Alpha MOs
 -- Occupied --
-88.8993 -10.2169 -10.2119 -10.1993 -10.1952 -10.1933 -10.1878 -10.1844
-10.1830 -10.1795 -10.1784 -10.1762 -10.1746 -10.1734 -10.1731 -10.1727
-10.1727 -10.1726 -10.1724 -10.1712 -10.1611  -7.9612  -5.9253  -5.9216
 -5.9181  -0.8893  -0.8208  -0.8112  -0.8029  -0.7886  -0.7737  -0.7614
 -0.7395  -0.7144  -0.7014  -0.6826  -0.6535  -0.6265  -0.6223  -0.6025
 -0.5811  -0.5745  -0.5572  -0.5503  -0.5374  -0.5252  -0.4920  -0.4841
 -0.4751  -0.4635  -0.4583  -0.4517  -0.4446  -0.4414  -0.4230  -0.4194
 -0.4169  -0.4094  -0.4038  -0.4004  -0.3911  -0.3852  -0.3784  -0.3740
 -0.3698  -0.3626  -0.3620  -0.3562  -0.3538  -0.3417  -0.3371  -0.3330
 -0.3301  -0.3272  -0.3238  -0.3224  -0.3177  -0.3155  -0.3069  -0.2995
 -0.2950  -0.2679  -0.2436  -0.1955

          Ground-State Mulliken Net Atomic Charges

     Atom                 Charge (a.u.)
  ----------------------------------------
      1 C                    -0.347926
      2 C                    -0.089554
      3 C                    -0.133159
      4 C                    -0.165358
      5 C                     0.153702
      6 C                    -0.355442
      7 C                    -0.258409
      8 C                    -0.256966
      9 C                    -0.261812
     10 C                    -0.260343
     11 C                    -0.259685
     12 C                    -0.256074
     13 C                    -0.259807
     14 C                    -0.260381
     15 C                    -0.257567
     16 C                    -0.250723
     17 C                    -0.453413
     18 C                    -0.205260
     19 C                    -0.053408
     20 C                    -0.377924
     21 S                     0.232680
     22 H                     0.148698
     23 H                     0.151567
     24 H                     0.139404
     25 H                     0.142041
     26 H                     0.154194
     27 H                     0.144060
     28 H                     0.140919
     29 H                     0.143223
     30 H                     0.126660
     31 H                     0.130808
     32 H                     0.132913
     33 H                     0.130295
     34 H                     0.129469
     35 H                     0.137419
     36 H                     0.133025
     37 H                     0.128246
     38 H                     0.126509
     39 H                     0.125721
     40 H                     0.128497
     41 H                     0.129600
     42 H                     0.132994
     43 H                     0.130143
     44 H                     0.128970
     45 H                     0.129729
     46 H                     0.133342
     47 H                     0.128940
     48 H                     0.157365
     49 H                     0.140076
     50 H                     0.136254
     51 H                     0.136116
     52 H                     0.155442
     53 H                     0.144192
  ----------------------------------------
  Sum of atomic charges =     0.000000

                    Cartesian Multipole Moments
 -----------------------------------------------------------------
    Charge (ESU x 10^10)
                -0.0000
    Dipole Moment (Debye)
         X       1.0680      Y       0.6046      Z      -0.0528
       Tot       1.2284
    Quadrupole Moments (Debye-Ang)
        XX    -139.6225     XY      -1.0282     YY    -134.6272
        XZ      -0.9884     YZ       3.4978     ZZ    -142.1580

 Total job time:  141.06s(wall), 140.32s(cpu)
        *  Thank you very much for using Q-Chem.  Have a nice day.  *
