 Q-Chem 5.2, Q-Chem, Inc., Pleasanton, CA (2019)
 Q-Chem 5.2.1 for Intel X86 EM64T Linux

User input:
--------------------------------------------------------------
$molecule
0 1
C        -4.43070888530000    0.31720287890000    0.68764353620000
C        -3.62363246580000   -0.65993640120000    0.29280499150000
C        -2.20430754160000   -0.54694177660000   -0.02097113070000
C        -1.51728139870000   -1.67901898090000   -0.46018665770000
C        -0.17255001710000   -1.61035538060000   -0.76858467800000
C         0.53275775400000   -0.41791283550000   -0.65422351870000
C         1.99859896470000   -0.38002083430000   -0.98538691100000
C         2.86559847680000   -0.42818549280000    0.27178001910000
O         3.86916503210000    0.20665919350000    0.41151195210000
O         2.43027847300000   -1.26916023630000    1.22055576290000
C        -0.13775647810000    0.72896311430000   -0.20187623010000
C         0.57785930350000    1.99591666230000   -0.03066014810000
C         0.04426224010000    3.18972311840000   -0.24758203540000
C        -1.49102641950000    0.64340771510000    0.10199649290000
H        -5.47081071720000    0.13253528290000    0.89410578870000
H        -4.09881925830000    1.33231261490000    0.82183396460000
H        -4.02844864130000   -1.65807767920000    0.17606365120000
H        -2.04168953460000   -2.61803326830000   -0.56212307520000
H         0.33500681720000   -2.49804634100000   -1.12379389690000
H         2.26438499070000    0.51311527870000   -1.55111168120000
H         2.26901365450000   -1.25394900730000   -1.58563327960000
H         1.58268937440000   -1.67598507650000    0.98010446700000
H         1.60792723300000    1.92212481680000    0.29168018120000
H        -0.96707620790000    3.31066852240000   -0.59963063410000
H         0.60907450150000    4.09391488740000   -0.10040350560000
H        -1.98876362960000    1.52730614970000    0.46687383880000
$end

$rem
BASIS = 6-31G*
GUI = 2
METHOD = B3LYP
PRINT_ORBITALS false
MOLDEN_FORMAT false
--------------------------------------------------------------

             Standard Nuclear Orientation (Angstroms)
    I     Atom           X                Y                Z
 ----------------------------------------------------------------
    1      C       4.3902440073    -0.3094489730     0.6385709195
    2      C       3.5783935937     0.6720575313     0.2649201683
    3      C       2.1552412341     0.5625629278    -0.0323251406
    4      C       1.4628928227     1.6995027170    -0.4500997087
    5      C       0.1144001746     1.6342782085    -0.7424006823
    6      C      -0.5895479192     0.4405957675    -0.6326916976
    7      C      -2.0594225286     0.4063936750    -0.9458917947
    8      C      -2.9106169118     0.4403311755     0.3224902638
    9      O      -3.9124237161    -0.1960858485     0.4675940821
   10      O      -2.4633687383     1.2705557071     1.2751779017
   11      C       0.0864526326    -0.7112906634    -0.2017476717
   12      C      -0.6270990998    -1.9801216238    -0.0359040540
   13      C      -0.0963851787    -3.1713841816    -0.2729505437
   14      C       1.4434283367    -0.6291240417     0.0861124973
   15      H       5.4328676641    -0.1270876704     0.8340725028
   16      H       4.0599517949    -1.3260206874     0.7654353179
   17      H       3.9818231984     1.6714674231     0.1543981812
   18      H       1.9860840102     2.6396264304    -0.5479830212
   19      H      -0.3974676908     2.5259051757    -1.0811858798
   20      H      -2.3323620614    -0.4803076818    -1.5182933660
   21      H      -2.3372346633     1.2870335705    -1.5328023939
   22      H      -1.6188117937     1.6800990906     1.0287466927
   23      H      -1.6530447787    -1.9100098993     0.3001142101
   24      H       0.9104557089    -3.2883117035    -0.6389708228
   25      H      -0.6594074715    -4.0771998062    -0.1289327760
   26      H       1.9455987362    -1.5170682245     0.4347301514
 ----------------------------------------------------------------

    9    -614.9170731861      5.15e-06  Convergence criterion met
 Total energy in the final basis set =     -614.9170731861

                    Orbital Energies (a.u.)
 --------------------------------------------------------------

 Alpha MOs
 -- Occupied --
-19.1915 -19.1305 -10.3170 -10.2139 -10.2100 -10.2099 -10.2087 -10.2052
-10.2024 -10.2004 -10.1997 -10.1982 -10.1903 -10.1903  -1.1032  -1.0203
 -0.8875  -0.8246  -0.8014  -0.7723  -0.7410  -0.7137  -0.6471  -0.6297
 -0.6133  -0.5830  -0.5628  -0.5270  -0.5102  -0.5002  -0.4812  -0.4617
 -0.4561  -0.4526  -0.4360  -0.4326  -0.4233  -0.3955  -0.3908  -0.3896
 -0.3747  -0.3726  -0.3560  -0.3467  -0.3214  -0.3124  -0.3003  -0.2699
 -0.2472  -0.2311

          Ground-State Mulliken Net Atomic Charges

     Atom                 Charge (a.u.)
  ----------------------------------------
      1 C                    -0.348038
      2 C                    -0.117334
      3 C                     0.188499
      4 C                    -0.189515
      5 C                    -0.220951
      6 C                     0.061325
      7 C                    -0.460476
      8 C                     0.607390
      9 O                    -0.448106
     10 O                    -0.561813
     11 C                     0.131243
     12 C                    -0.144112
     13 C                    -0.336829
     14 C                    -0.250531
     15 H                     0.149600
     16 H                     0.147001
     17 H                     0.130214
     18 H                     0.134874
     19 H                     0.134639
     20 H                     0.191631
     21 H                     0.182959
     22 H                     0.416933
     23 H                     0.164561
     24 H                     0.147273
     25 H                     0.153564
     26 H                     0.135999
  ----------------------------------------
  Sum of atomic charges =     0.000000

                    Cartesian Multipole Moments
 -----------------------------------------------------------------
    Charge (ESU x 10^10)
                 0.0000
    Dipole Moment (Debye)
         X       4.0219      Y       1.1002      Z      -1.6586
       Tot       4.4875
    Quadrupole Moments (Debye-Ang)
        XX     -94.0037     XY      -1.8001     YY     -71.3346
        XZ       7.7580     YZ      -2.1250     ZZ     -85.5257

 Total job time:  39.88s(wall), 39.75s(cpu)
        *  Thank you very much for using Q-Chem.  Have a nice day.  *
