 Q-Chem 5.4, Q-Chem, Inc., Pleasanton, CA (2021)
 Q-Chem 5.4.2 for Intel X86 EM64T Linux

User input:
--------------------------------------------------------------
$molecule
0 1
C           -4.02479059870000       -2.24102186040000        0.02196351430000
C           -2.70668070270000       -2.08968619540000       -0.02937555080000
C           -1.97582181730000       -0.83006601160000       -0.07527789150000
C           -2.59684515290000        0.42079437620000       -0.03831465390000
C           -1.84715846060000        1.57383856160000       -0.06179409590000
C           -0.45442366860000        1.53817228550000       -0.13911142230000
O            0.15725730480000        2.75827857450000       -0.14008971810000
C            1.38749273380000        2.94171535820000        0.53186797270000
C            0.18911203250000        0.29328081130000       -0.22997435640000
C            1.63046778920000        0.18804138330000       -0.46290090390000
C            2.42356315120000       -0.76949112310000       -0.01275823020000
F            2.09589445140000       -1.77296428460000        0.79452308570000
F            3.72390911350000       -0.84444346900000       -0.29638052150000
C           -0.58880692290000       -0.86105736790000       -0.17700873500000
H           -4.47309475760000       -3.21899671510000        0.05440094870000
H           -4.70884216270000       -1.41006664000000        0.03289838640000
H           -2.07842793600000       -2.97188451250000       -0.03963883260000
H           -3.67071774440000        0.49269680800000        0.02441428380000
H           -2.31925083690000        2.54295843320000       -0.01600674370000
H            1.30567572670000        3.88440834120000        1.07767488890000
H            2.21484363580000        3.02368223490000       -0.17810590950000
H            1.59017104120000        2.13638616340000        1.23968904090000
H            2.09349274570000        0.93085335690000       -1.09378378020000
H           -0.09580462680000       -1.81870409810000       -0.25120841280000
$end

$rem
BASIS = 6-31G*
GUI = 2
METHOD = B3LYP
PRINT_ORBITALS false
MOLDEN_FORMAT false
$end
--------------------------------------------------------------

             Standard Nuclear Orientation (Angstroms)
    I     Atom           X                Y                Z
 ----------------------------------------------------------------
    1      C       4.4054642400     1.1524108265     0.0732908765
    2      C       3.0948639928     1.3529336689     0.0020907162
    3      C       2.0588899987     0.3297621367    -0.0506600358
    4      C       2.3281170883    -1.0401297597     0.0003393812
    5      C       1.3017251843    -1.9553625233    -0.0306600049
    6      C      -0.0312650258    -1.5549903358    -0.1296522495
    7      O      -0.9425037629    -2.5710712109    -0.1357797170
    8      C      -2.1869166571    -2.4192265495     0.5176995483
    9      C      -0.3230247717    -0.1853355883    -0.2348719115
   10      C      -1.6824208871     0.2937857087    -0.4904526526
   11      C      -2.2016756233     1.4296338751    -0.0560327606
   12      F      -1.6327226892     2.3175111829     0.7526666464
   13      F      -3.4323143303     1.8420457001    -0.3600129234
   14      C       0.7305284067     0.7239361208    -0.1739576314
   15      H       5.0949208630     1.9781369316     0.1092016920
   16      H       4.8464006094     0.1708257079     0.0977544207
   17      H       2.7212334874     2.3692736372    -0.0210189964
   18      H       3.3441903807    -1.3916498974     0.0799376183
   19      H       1.5013391489    -3.0141924440     0.0258597546
   20      H      -2.3638145481    -3.3461033193     1.0680411352
   21      H      -2.9966358365    -2.2858746650    -0.2047013949
   22      H      -2.1803198870    -1.5836689817     1.2194433095
   23      H      -2.3157882218    -0.3056827384    -1.1257937754
   24      H       0.5081216090     1.7769880296    -0.2591691895
 ----------------------------------------------------------------

    9    -700.0274629254      4.31e-06  Convergence criterion met
 Total energy in the final basis set =     -700.0274629254

                    Orbital Energies (a.u.)
 --------------------------------------------------------------

 Alpha MOs
 -- Occupied --
-24.7424 -24.7356 -19.1769 -10.3571 -10.2499 -10.2411 -10.2057 -10.2050
-10.1907 -10.1894 -10.1884 -10.1875 -10.1850 -10.1757  -1.2845  -1.2245
 -1.0659  -0.8684  -0.8149  -0.7881  -0.7439  -0.7369  -0.6954  -0.6431
 -0.6153  -0.6144  -0.5780  -0.5583  -0.5348  -0.5195  -0.5138  -0.4969
 -0.4751  -0.4715  -0.4459  -0.4435  -0.4405  -0.4351  -0.4302  -0.4131
 -0.4101  -0.3922  -0.3840  -0.3565  -0.3514  -0.3425  -0.3208  -0.2908
 -0.2713  -0.2343  -0.2062

          Ground-State Mulliken Net Atomic Charges

     Atom                 Charge (a.u.)
  ----------------------------------------
      1 C                    -0.358347
      2 C                    -0.111557
      3 C                     0.184512
      4 C                    -0.185511
      5 C                    -0.170666
      6 C                     0.295231
      7 O                    -0.514350
      8 C                    -0.215016
      9 C                     0.144341
     10 C                    -0.325575
     11 C                     0.556019
     12 F                    -0.236991
     13 F                    -0.249017
     14 C                    -0.275359
     15 H                     0.142594
     16 H                     0.140091
     17 H                     0.126530
     18 H                     0.129984
     19 H                     0.138220
     20 H                     0.162964
     21 H                     0.151003
     22 H                     0.164005
     23 H                     0.171846
     24 H                     0.135050
  ----------------------------------------
  Sum of atomic charges =     0.000000

                    Cartesian Multipole Moments
 -----------------------------------------------------------------
    Charge (ESU x 10^10)
                 0.0000
    Dipole Moment (Debye)
         X      -0.6190      Y      -0.6819      Z       0.3836
       Tot       0.9976
    Quadrupole Moments (Debye-Ang)
        XX     -73.5780     XY       3.7419     YY     -77.9601
        XZ      -0.3335     YZ      -2.4902     ZZ     -81.5336

 Total job time:  63.08s(wall), 56.50s(cpu)
        *  Thank you very much for using Q-Chem.  Have a nice day.  *
