 Q-Chem 5.2, Q-Chem, Inc., Pleasanton, CA (2019)
 Q-Chem 5.2.1 for Intel X86 EM64T Linux

User input:
--------------------------------------------------------------
$molecule
0 1
C         5.91679866070000    0.35798033070000    0.00561487600000
C         4.82908548890000   -0.40443957570000   -0.00848900090000
C         3.44281900110000    0.04204714720000   -0.00631877600000
C         3.08261698090000    1.39276691190000   -0.00796952030000
C         1.75909331500000    1.78804049120000   -0.00532079140000
C         0.76799659210000    0.81829189390000   -0.00086300600000
C         1.11233731170000   -0.54217209430000    0.00035192600000
C         2.43129416650000   -0.92726984880000   -0.00274991770000
C        -0.12816820880000   -1.40790982970000    0.00471714440000
C        -0.19108244440000   -2.27597351870000    1.26512028450000
C        -0.19685970650000   -2.28092893950000   -1.25193393180000
C        -1.22445529320000   -0.36493516970000    0.00485162250000
C        -2.58513288690000   -0.55344131660000    0.00695893300000
C        -3.43814880290000    0.55702162660000    0.00610124310000
C        -4.88912096050000    0.43270593330000    0.00625052930000
C        -5.59510914940000   -0.69213729900000   -0.02588352230000
C        -2.87762298560000    1.83836919730000    0.00532309460000
C        -1.51023968870000    2.03638610790000    0.00273804650000
C        -0.67762591330000    0.92842112590000    0.00206060250000
H         6.90241447090000   -0.07517905060000    0.00248331220000
H         5.87761161740000    1.43350796480000    0.02110924040000
H         4.95118911060000   -1.48137115710000   -0.02177328220000
H         3.85372651700000    2.14745191630000   -0.01213865440000
H         1.50246762080000    2.83727323490000   -0.00671691140000
H         2.70025789530000   -1.97469783810000   -0.00187570100000
H         0.64216198350000   -2.97463430680000    1.28500009620000
H        -1.11987930990000   -2.84122677650000    1.28912469410000
H        -0.14184747120000   -1.65105492660000    2.15443056250000
H         0.63614332190000   -2.97982184040000   -1.27277483690000
H        -0.15151517520000   -1.65950682000000   -2.14390152750000
H        -1.12584075750000   -2.84611687130000   -1.26954315710000
H        -2.99635215180000   -1.55109826880000    0.01082926610000
H        -5.41933877910000    1.37750167760000    0.03310124710000
H        -5.14129080160000   -1.66777146810000   -0.05702918210000
H        -6.67154788190000   -0.67653291110000   -0.02401906640000
H        -3.53699615240000    2.69536731590000    0.00560526980000
H        -1.10070223460000    3.03579271500000    0.00141714490000
$end

$rem
BASIS = 6-31G*
GUI = 2
METHOD = B3LYP
PRINT_ORBITALS false
MOLDEN_FORMAT false
--------------------------------------------------------------

             Standard Nuclear Orientation (Angstroms)
    I     Atom           X                Y                Z
 ----------------------------------------------------------------
    1      C       5.9195424271    -0.3684206957    -0.0050717246
    2      C       4.8288918674     0.3897960445     0.0087741631
    3      C       3.4443601601    -0.0620413842     0.0065904974
    4      C       3.0893769549    -1.4141417258     0.0085123117
    5      C       1.7673898639    -1.8145241965     0.0058438558
    6      C       0.7725558874    -0.8486113192     0.0010898344
    7      C       1.1116402438     0.5131720156    -0.0003996242
    8      C       2.4290998180     0.9033612019     0.0027238379
    9      C      -0.1321990039     1.3741116483    -0.0050582307
   10      C      -0.1983615200     2.2416459982    -1.2656594833
   11      C      -0.2043647141     2.2471379953     1.2513930907
   12      C      -1.2244500975     0.3269110565    -0.0050499281
   13      C      -2.5858453475     0.5101605814    -0.0073098023
   14      C      -3.4345665402    -0.6035880896    -0.0062745424
   15      C      -4.8860079481    -0.4848768080    -0.0065694607
   16      C      -5.5963374752     0.6372387179     0.0252570494
   17      C      -2.8690966093    -1.8827612297    -0.0051658798
   18      C      -1.5009590164    -2.0754954446    -0.0024256078
   19      C      -0.6726302915    -0.9643231654    -0.0019268375
   20      H       6.9034778348     0.0685424486    -0.0019563360
   21      H       5.8845104649    -1.4440950584    -0.0203301093
   22      H       4.9468345492     1.4671940654     0.0218288951
   23      H       3.8633948684    -2.1658422426     0.0129119694
   24      H       1.5148179383    -2.8647398322     0.0074524264
   25      H       2.6940166129     1.9518198603     0.0016385752
   26      H       0.6321802092     2.9435150164    -1.2856268996
   27      H      -1.1293324014     2.8033028150    -1.2898651145
   28      H      -0.1466404997     1.6167247442    -2.1548267692
   29      H       0.6259313748     2.9492472346     1.2721463189
   30      H      -0.1566939855     1.6260937050     2.1435025347
   31      H      -1.1355229469     2.8087380158     1.2688010928
   32      H      -3.0009140180     1.5062211397    -0.0114354238
   33      H      -5.4125709548    -1.4317190720    -0.0332531984
   34      H      -5.1462928153     1.6146250858     0.0562226589
   35      H      -6.6727077622     0.6174769792     0.0233085313
   36      H      -3.5251552443    -2.7422994048    -0.0053111017
   37      H      -1.0875651778    -3.0733127057    -0.0008491654
 ----------------------------------------------------------------

    8    -734.8477287935      7.69e-06  Convergence criterion met
 Total energy in the final basis set =     -734.8477287935

                    Orbital Energies (a.u.)
 --------------------------------------------------------------

 Alpha MOs
 -- Occupied --
-10.2012 -10.1930 -10.1926 -10.1879 -10.1877 -10.1875 -10.1872 -10.1867
-10.1859 -10.1850 -10.1849 -10.1848 -10.1848 -10.1841 -10.1840 -10.1773
-10.1771 -10.1767 -10.1767  -0.8947  -0.8546  -0.8264  -0.7957  -0.7799
 -0.7469  -0.7433  -0.7334  -0.7016  -0.6906  -0.6497  -0.6353  -0.6006
 -0.5883  -0.5731  -0.5592  -0.5310  -0.5121  -0.4960  -0.4769  -0.4630
 -0.4529  -0.4485  -0.4383  -0.4344  -0.4306  -0.4299  -0.4232  -0.4002
 -0.3959  -0.3932  -0.3796  -0.3792  -0.3650  -0.3645  -0.3605  -0.3459
 -0.3418  -0.3402  -0.3172  -0.3169  -0.3155  -0.2846  -0.2493  -0.2453
 -0.2391  -0.1962

          Ground-State Mulliken Net Atomic Charges

     Atom                 Charge (a.u.)
  ----------------------------------------
      1 C                    -0.356970
      2 C                    -0.112133
      3 C                     0.188570
      4 C                    -0.198699
      5 C                    -0.191421
      6 C                     0.085133
      7 C                     0.111477
      8 C                    -0.286621
      9 C                    -0.072730
     10 C                    -0.435019
     11 C                    -0.435012
     12 C                     0.110580
     13 C                    -0.269544
     14 C                     0.188158
     15 C                    -0.118819
     16 C                    -0.353967
     17 C                    -0.212815
     18 C                    -0.191728
     19 C                     0.085732
     20 H                     0.142894
     21 H                     0.141744
     22 H                     0.124389
     23 H                     0.124522
     24 H                     0.128868
     25 H                     0.122352
     26 H                     0.144909
     27 H                     0.145257
     28 H                     0.158217
     29 H                     0.144886
     30 H                     0.158220
     31 H                     0.145122
     32 H                     0.122124
     33 H                     0.125377
     34 H                     0.140340
     35 H                     0.142847
     36 H                     0.125428
     37 H                     0.128334
  ----------------------------------------
  Sum of atomic charges =     0.000000

                    Cartesian Multipole Moments
 -----------------------------------------------------------------
    Charge (ESU x 10^10)
                 0.0000
    Dipole Moment (Debye)
         X       0.0007      Y       0.3145      Z      -0.0013
       Tot       0.3145
    Quadrupole Moments (Debye-Ang)
        XX    -105.4865     XY       0.2447     YY    -100.6998
        XZ       0.0184     YZ       0.0843     ZZ    -117.5591

 Total job time:  79.14s(wall), 78.92s(cpu)
        *  Thank you very much for using Q-Chem.  Have a nice day.  *
