 Q-Chem 5.2, Q-Chem, Inc., Pleasanton, CA (2019)
 Q-Chem 5.2.1 for Intel X86 EM64T Linux

User input:
--------------------------------------------------------------
$molecule
0 1
C        -4.00322579430000    2.01411642580000   -0.60973566450000
C        -3.46039586650000    1.03907735140000    0.10630342310000
C        -2.03132910800000    0.72473853820000    0.12255096290000
C        -1.10736314420000    1.76912077180000    0.04560646130000
C         0.25208933850000    1.52708261810000    0.04380173140000
C         0.69290961960000    0.22002086660000    0.12671571780000
S         2.45043535520000   -0.12323434330000    0.08780745230000
C         2.79407377750000   -0.25948084570000   -1.69435340920000
O         3.16787491640000    1.01454061350000    0.59555372740000
O         2.69460398810000   -1.40664751420000    0.68874040830000
C        -0.19167270150000   -0.83051593810000    0.21203475130000
C        -1.56828340890000   -0.60384601990000    0.20954034430000
C        -2.48807914380000   -1.73760977460000    0.27982527800000
C        -2.23278530650000   -2.94554729960000   -0.20505817550000
H        -5.06069310930000    2.21286627310000   -0.58144923930000
H        -3.41920394840000    2.63527088840000   -1.26809273730000
H        -4.09806663600000    0.42018224970000    0.72255532610000
H        -1.47075234650000    2.78474219580000    0.00830174600000
H         0.97525532920000    2.32614011170000    0.00635037950000
H         2.54626990170000    0.68655449120000   -2.15731352840000
H         2.19012933750000   -1.06491795330000   -2.09100762840000
H         3.84783341030000   -0.47826135860000   -1.81300909660000
H         0.20571152220000   -1.82760471370000    0.31698096970000
H        -3.44212353160000   -1.55468350890000    0.75431885680000
H        -1.31576238670000   -3.17824230050000   -0.71925394340000
H        -2.94547812040000   -3.74744260510000   -0.11838419270000
$end

$rem
BASIS = 6-31G*
GUI = 2
METHOD = B3LYP
PRINT_ORBITALS false
MOLDEN_FORMAT false
--------------------------------------------------------------

             Standard Nuclear Orientation (Angstroms)
    I     Atom           X                Y                Z
 ----------------------------------------------------------------
    1      C       4.0932703575    -1.7301975136    -0.5032540108
    2      C       3.4773211924    -0.7674440198     0.1688991253
    3      C       2.0281629377    -0.5645462736     0.1777042219
    4      C       1.1880995300    -1.6799540793     0.1547541358
    5      C      -0.1860595614    -1.5445091388     0.1485705129
    6      C      -0.7270665242    -0.2731465875     0.1721586671
    7      S      -2.5060191580    -0.0695532329     0.1262024259
    8      C      -2.8618531377    -0.0448625142    -1.6586001846
    9      O      -3.1320525061    -1.2342743918     0.6906176323
   10      O      -2.8483634368     1.2180304781     0.6673278163
   11      C       0.0732663470     0.8457300207     0.2033873233
   12      C       1.4633301846     0.7267179215     0.2044649994
   13      C       2.2922752804     1.9304985112     0.2165785196
   14      C       1.9430997110     3.0906805665    -0.3232862703
   15      H       5.1630320219    -1.8447171696    -0.4710985176
   16      H       3.5583467906    -2.4252560661    -1.1286329395
   17      H       4.0658444550    -0.0724640214     0.7520498230
   18      H       1.6293134243    -2.6649340894     0.1634092078
   19      H      -0.8449507150    -2.3981552113     0.1524900283
   20      H      -2.5419166840    -0.9896547000    -2.0778019054
   21      H      -2.3229618397     0.7853445314    -2.0958241786
   22      H      -3.9296099892     0.0856168505    -1.7819853136
   23      H      -0.4002981233     1.8128162086     0.2633452590
   24      H       3.2583580968     1.8448225084     0.6942295254
   25      H       1.0099970494     3.2269139955    -0.8431277486
   26      H       2.5914016807     3.9486688414    -0.2781178802
 ----------------------------------------------------------------

    9    -974.9236331212      7.46e-06  Convergence criterion met
 Total energy in the final basis set =     -974.9236331212

                    Orbital Energies (a.u.)
 --------------------------------------------------------------

 Alpha MOs
 -- Occupied --
-89.0879 -19.1309 -19.1307 -10.2227 -10.2193 -10.2186 -10.2171 -10.2112
-10.2101 -10.2067 -10.2059 -10.2040 -10.1966 -10.1939  -8.1179  -6.0822
 -6.0815  -6.0811  -1.1105  -1.0010  -0.8925  -0.8232  -0.8085  -0.7755
 -0.7511  -0.7410  -0.6660  -0.6468  -0.6078  -0.5841  -0.5619  -0.5328
 -0.5045  -0.4923  -0.4767  -0.4710  -0.4620  -0.4571  -0.4489  -0.4365
 -0.4350  -0.4234  -0.4128  -0.3949  -0.3854  -0.3673  -0.3539  -0.3299
 -0.3172  -0.3125  -0.3061  -0.2943  -0.2864  -0.2588  -0.2403

          Ground-State Mulliken Net Atomic Charges

     Atom                 Charge (a.u.)
  ----------------------------------------
      1 C                    -0.331464
      2 C                    -0.126212
      3 C                     0.096863
      4 C                    -0.181375
      5 C                    -0.147224
      6 C                    -0.149909
      7 S                     1.073126
      8 C                    -0.624962
      9 O                    -0.521738
     10 O                    -0.522002
     11 C                    -0.219492
     12 C                     0.107304
     13 C                    -0.116400
     14 C                    -0.332937
     15 H                     0.151426
     16 H                     0.150081
     17 H                     0.144817
     18 H                     0.145245
     19 H                     0.174374
     20 H                     0.197775
     21 H                     0.197046
     22 H                     0.216876
     23 H                     0.180065
     24 H                     0.138267
     25 H                     0.149385
     26 H                     0.151067
  ----------------------------------------
  Sum of atomic charges =     0.000000

                    Cartesian Multipole Moments
 -----------------------------------------------------------------
    Charge (ESU x 10^10)
                 0.0000
    Dipole Moment (Debye)
         X       4.2511      Y      -0.3046      Z      -3.4197
       Tot       5.4643
    Quadrupole Moments (Debye-Ang)
        XX     -91.1774     XY      -0.2636     YY     -85.2100
        XZ      12.4173     YZ       0.7559     ZZ     -89.3777

 Total job time:  42.99s(wall), 42.00s(cpu)
        *  Thank you very much for using Q-Chem.  Have a nice day.  *
