 Q-Chem 5.2, Q-Chem, Inc., Pleasanton, CA (2019)
 Q-Chem 5.2.1 for Intel X86 EM64T Linux

User input:
--------------------------------------------------------------
$molecule
0 1
C         1.03114392130000    3.75416895550000    0.59389680570000
C         1.45773528300000    2.64048589270000    0.01193875770000
C         0.74415786970000    1.36867718000000    0.06248474050000
C        -0.64763524850000    1.34973837220000    0.09878129270000
C        -1.37744414540000    0.16934117660000    0.12683721420000
C        -2.85625874800000    0.32332474000000    0.10629928670000
O        -3.43565764140000    1.29598839850000    0.52342631240000
O        -3.48554507620000   -0.71084123790000   -0.46800328840000
C        -4.89811278060000   -0.60414259410000   -0.55922790110000
C        -0.71465669030000   -1.06917208350000    0.13523815260000
C        -1.42203948380000   -2.34326575820000    0.24378532410000
C        -1.03893610150000   -3.45979173500000   -0.35990309110000
C         0.67567237330000   -1.05307715280000    0.08682931900000
C         1.40765332120000    0.12766121990000    0.04104812250000
C         2.89024216330000    0.04538354200000    0.02914526770000
O         3.64986597090000    0.91432023330000    0.37995945990000
O         3.31804792390000   -1.14633090660000   -0.42380683910000
C         4.72538797200000   -1.32480586000000   -0.45235049710000
H         1.59167681850000    4.67036749350000    0.52729809180000
H         0.12669387230000    3.78867195960000    1.17828101720000
H         2.40149359890000    2.63758258920000   -0.51323431150000
H        -1.19544664610000    2.27982774340000    0.08325682410000
H        -5.24064239540000   -1.51840309450000   -1.03678015660000
H        -5.17455107850000    0.26794387390000   -1.15538730600000
H        -5.33703849730000   -0.49979540520000    0.43540419400000
H        -2.30959577330000   -2.34273753960000    0.86058843520000
H        -0.18429415290000   -3.49109064890000   -1.01500264820000
H        -1.58280114860000   -4.38076434630000   -0.23989767300000
H         1.20895564690000   -1.99022655890000    0.11487740080000
H         4.89664949120000   -2.33165837530000   -0.82430333580000
H         5.14372987160000   -1.20756995270000    0.54959151800000
H         5.18884111300000   -0.58842062680000   -1.11237508340000
$end

$rem
BASIS = 6-31G*
GUI = 2
METHOD = B3LYP
PRINT_ORBITALS false
MOLDEN_FORMAT false
--------------------------------------------------------------

             Standard Nuclear Orientation (Angstroms)
    I     Atom           X                Y                Z
 ----------------------------------------------------------------
    1      C      -1.3792178676    -3.7064498187     0.1354661275
    2      C      -1.6969497952    -2.4951991056    -0.3036960932
    3      C      -0.8703706536    -1.3102945855    -0.0987248181
    4      C       0.5169398539    -1.4240179097    -0.0640727862
    5      C       1.3515062685    -0.3281688657     0.1072732748
    6      C       2.8101283326    -0.6137791520     0.0639857312
    7      O       3.2943682262    -1.6794688346     0.3565431642
    8      O       3.5364487808     0.4208679999    -0.3801852697
    9      C       4.9340500978     0.1967635771    -0.4876181155
   10      C       0.8048739073     0.9555728997     0.2699786013
   11      C       1.6249892216     2.1361743379     0.5328068956
   12      C       1.3510103253     3.3489070319     0.0723146174
   13      C      -0.5806129226     1.0734608284     0.2236531498
   14      C      -1.4172191790    -0.0203465177     0.0346806855
   15      C      -2.8858837186     0.1987431713     0.0369494276
   16      O      -3.7249132250    -0.6331736572     0.2800415456
   17      O      -3.1988016933     1.4713521707    -0.2645723507
   18      C      -4.5835823251     1.7806254201    -0.2671645325
   19      H      -2.0206963623    -4.5520587158    -0.0420253158
   20      H      -0.4868475125    -3.8955510444     0.7087384284
   21      H      -2.6318707743    -2.3409878862    -0.8219977460
   22      H       0.9773898463    -2.3915442093    -0.1955385201
   23      H       5.3630072917     1.1273996660    -0.8497881753
   24      H       5.1346418840    -0.6171125400    -1.1874235009
   25      H       5.3529039309    -0.0689839623     0.4854064664
   26      H       2.5033666131     1.9782130076     1.1424821373
   27      H       0.5085588274     3.5389559006    -0.5716611688
   28      H       1.9758640915     4.1942003016     0.3034381765
   29      H      -1.0260588388     2.0450879797     0.3683782986
   30      H      -4.6586775410     2.8370168038    -0.5117649469
   31      H      -5.0196052628     1.5800690527     0.7138059798
   32      H      -5.1067621749     1.1767263476    -1.0116598214
 ----------------------------------------------------------------

    9    -842.7890691577      6.65e-06  Convergence criterion met
 Total energy in the final basis set =     -842.7890691577

                    Orbital Energies (a.u.)
 --------------------------------------------------------------

 Alpha MOs
 -- Occupied --
-19.1982 -19.1963 -19.1385 -19.1371 -10.3185 -10.3179 -10.2433 -10.2424
-10.2123 -10.2121 -10.2113 -10.2108 -10.2004 -10.1984 -10.1950 -10.1868
-10.1842 -10.1786  -1.1149  -1.1137  -1.0218  -1.0215  -0.8849  -0.8202
 -0.7927  -0.7747  -0.7450  -0.7264  -0.7188  -0.6513  -0.6436  -0.5944
 -0.5809  -0.5699  -0.5607  -0.5261  -0.5170  -0.5039  -0.4891  -0.4865
 -0.4734  -0.4719  -0.4548  -0.4495  -0.4443  -0.4415  -0.4229  -0.4215
 -0.4084  -0.4034  -0.4018  -0.3741  -0.3701  -0.3633  -0.3606  -0.3568
 -0.3461  -0.3153  -0.3059  -0.3053  -0.2831  -0.2745  -0.2674  -0.2626
 -0.2249

          Ground-State Mulliken Net Atomic Charges

     Atom                 Charge (a.u.)
  ----------------------------------------
      1 C                    -0.342860
      2 C                    -0.097600
      3 C                     0.119358
      4 C                    -0.248446
      5 C                     0.048558
      6 C                     0.546259
      7 O                    -0.479701
      8 O                    -0.442983
      9 C                    -0.220620
     10 C                     0.121942
     11 C                    -0.095985
     12 C                    -0.342805
     13 C                    -0.247243
     14 C                     0.035705
     15 C                     0.567387
     16 O                    -0.481952
     17 O                    -0.451884
     18 C                    -0.217529
     19 H                     0.147619
     20 H                     0.150506
     21 H                     0.156715
     22 H                     0.165390
     23 H                     0.167424
     24 H                     0.172239
     25 H                     0.170346
     26 H                     0.141986
     27 H                     0.147619
     28 H                     0.144627
     29 H                     0.160070
     30 H                     0.165183
     31 H                     0.171367
     32 H                     0.169305
  ----------------------------------------
  Sum of atomic charges =     0.000000

                    Cartesian Multipole Moments
 -----------------------------------------------------------------
    Charge (ESU x 10^10)
                 0.0000
    Dipole Moment (Debye)
         X       0.5727      Y       3.0052      Z      -0.9838
       Tot       3.2136
    Quadrupole Moments (Debye-Ang)
        XX     -90.5020     XY      -0.7811     YY     -99.2121
        XZ       1.4991     YZ       2.2951     ZZ    -103.8027

 Total job time:  63.78s(wall), 63.03s(cpu)
        *  Thank you very much for using Q-Chem.  Have a nice day.  *
