 Q-Chem 5.2, Q-Chem, Inc., Pleasanton, CA (2019)
 Q-Chem 5.2.1 for Intel X86 EM64T Linux

User input:
--------------------------------------------------------------
$molecule
0 1
C         0.07449492440000   -1.58190852720000   -2.10383582730000
C        -0.94398940340000   -1.64211112230000   -1.25852902310000
C        -1.51312615450000   -0.51445565390000   -0.51895740540000
C        -2.89771032380000   -0.46267009930000   -0.36843697740000
C        -3.51466727040000    0.59667049950000    0.26855937030000
C        -2.74787599230000    1.62999565250000    0.77985349590000
C        -1.37114913640000    1.58223242210000    0.66141929630000
C        -0.73775147690000    0.51657454150000    0.02998364540000
C         0.73751968490000    0.51681941580000   -0.02979046310000
C         1.37052297300000    1.58255446850000   -0.66147034940000
C         2.74720652550000    1.63046483720000   -0.78043884270000
C         3.51430929140000    0.59722470910000   -0.26945596620000
C         2.89773878670000   -0.46215213530000    0.36788316550000
C         1.51324782360000   -0.51403921120000    0.51896046470000
C         0.94426433490000   -1.64160446390000    1.25882123800000
C        -0.07311999520000   -1.58065726080000    2.10539288480000
H         0.41416951170000   -2.45413225930000   -2.63662381100000
H         0.60182312110000   -0.66549244500000   -2.30609482450000
H        -1.46794207320000   -2.58097629460000   -1.12214977930000
H        -3.49675260170000   -1.26384709130000   -0.77835780270000
H        -4.59017053560000    0.61702856840000    0.36626771850000
H        -3.21924362930000    2.46505047870000    1.27701643350000
H        -0.76540367930000    2.37265279590000    1.08256582550000
H         0.76451910080000    2.37287470490000   -1.08242803310000
H         3.21827731730000    2.46552934640000   -1.27786233240000
H         4.58975526600000    0.61761887370000   -0.36776297230000
H         3.49705005580000   -1.26323134770000    0.77760381830000
H         1.46721889620000   -2.58087719980000    1.12144467940000
H        -0.59937240150000   -0.66377004430000    2.30839353600000
H        -0.41291054630000   -2.45265488050000    2.63847963580000
$end

$rem
BASIS = 6-31G*
GUI = 2
METHOD = B3LYP
PRINT_ORBITALS false
MOLDEN_FORMAT false
--------------------------------------------------------------

             Standard Nuclear Orientation (Angstroms)
    I     Atom           X                Y                Z
 ----------------------------------------------------------------
    1      C      -0.2025857262    -1.5681338169     2.0955126518
    2      C       0.8655387708    -1.6283835313     1.3138744346
    3      C       1.4786862458    -0.5007760959     0.6102827064
    4      C       2.8698705598    -0.4489735055     0.5444483616
    5      C       3.5244969427     0.6103284006    -0.0538379376
    6      C       2.7902860129     1.6435958273    -0.6110130935
    7      C       1.4089004507     1.5958131216    -0.5767266093
    8      C       0.7382030422     0.5301931348     0.0150075580
    9      C      -0.7379681241     0.5304116878    -0.0152685868
   10      C      -1.4083211893     1.5961846550     0.5765579034
   11      C      -2.7896976459     1.6440755923     0.6113724496
   12      C      -3.5242051008     0.6107777639     0.0546591371
   13      C      -2.8699093431    -0.4486378017    -0.5438184107
   14      C      -1.4787824391    -0.5005078887    -0.6102057366
   15      C      -0.8657339095    -1.6281211931    -1.3139097293
   16      C       0.2013677906    -1.5672212358    -2.0968874727
   17      H      -0.5740955296    -2.4403214595     2.6066733718
   18      H      -0.7412784560    -0.6517124571     2.2651717187
   19      H       1.3968462937    -2.5672487027     1.2097686420
   20      H       3.4428209298    -1.2501045488     0.9901929422
   21      H       4.6039561112     0.6307012625    -0.0857987865
   22      H       3.2910726487     2.4786202400    -1.0785833814
   23      H       0.8299439119     2.3861864935    -1.0340837830
   24      H      -0.8291207195     2.3865518778     1.0336121775
   25      H      -3.2902308321     2.4791705366     1.0790833829
   26      H      -4.6036442399     0.6311571852     0.0872176674
   27      H      -3.4431145438    -1.2497629466    -0.9892476589
   28      H      -1.3960756643    -2.5673938212    -1.2085929804
   29      H       0.7390023524    -0.6503393862    -2.2675033548
   30      H       0.5730397115    -2.4392549606    -2.6081957139
 ----------------------------------------------------------------

    8    -618.0846113046      4.27e-06  Convergence criterion met
 Total energy in the final basis set =     -618.0846113046

                    Orbital Energies (a.u.)
 --------------------------------------------------------------

 Alpha MOs
 -- Occupied --
-10.1910 -10.1907 -10.1902 -10.1901 -10.1840 -10.1840 -10.1834 -10.1834
-10.1826 -10.1826 -10.1825 -10.1824 -10.1823 -10.1823 -10.1716 -10.1716
 -0.8753  -0.8504  -0.7917  -0.7826  -0.7724  -0.7298  -0.7238  -0.7131
 -0.6328  -0.6130  -0.6077  -0.5872  -0.5659  -0.5433  -0.5128  -0.4941
 -0.4751  -0.4650  -0.4598  -0.4424  -0.4367  -0.4255  -0.4197  -0.4135
 -0.4120  -0.3749  -0.3725  -0.3688  -0.3607  -0.3574  -0.3344  -0.3324
 -0.3296  -0.2976  -0.2705  -0.2596  -0.2395  -0.2317  -0.2085

          Ground-State Mulliken Net Atomic Charges

     Atom                 Charge (a.u.)
  ----------------------------------------
      1 C                    -0.336238
      2 C                    -0.132177
      3 C                     0.158730
      4 C                    -0.199043
      5 C                    -0.121859
      6 C                    -0.133253
      7 C                    -0.166528
      8 C                    -0.009874
      9 C                    -0.010005
     10 C                    -0.166494
     11 C                    -0.133253
     12 C                    -0.121867
     13 C                    -0.198993
     14 C                     0.158631
     15 C                    -0.132198
     16 C                    -0.336128
     17 H                     0.137714
     18 H                     0.159192
     19 H                     0.129710
     20 H                     0.126532
     21 H                     0.126953
     22 H                     0.127523
     23 H                     0.132655
     24 H                     0.132666
     25 H                     0.127527
     26 H                     0.126957
     27 H                     0.126535
     28 H                     0.129745
     29 H                     0.159121
     30 H                     0.137720
  ----------------------------------------
  Sum of atomic charges =     0.000000

                    Cartesian Multipole Moments
 -----------------------------------------------------------------
    Charge (ESU x 10^10)
                 0.0000
    Dipole Moment (Debye)
         X      -0.0002      Y      -0.1146      Z       0.0002
       Tot       0.1146
    Quadrupole Moments (Debye-Ang)
        XX     -84.4268     XY       0.0008     YY     -86.2620
        XZ      -2.3119     YZ      -0.0019     ZZ     -95.3245

 Total job time:  56.91s(wall), 56.74s(cpu)
        *  Thank you very much for using Q-Chem.  Have a nice day.  *
