 Q-Chem 5.2, Q-Chem, Inc., Pleasanton, CA (2019)
 Q-Chem 5.2.1 for Intel X86 EM64T Linux

User input:
--------------------------------------------------------------
$molecule
0 1
C        -1.71512164070000    3.19414638280000    0.09749871170000
C        -0.93502793690000    2.20590252740000   -0.31787116450000
C        -1.22558065230000    0.78435425510000   -0.11877007680000
C        -2.53770583940000    0.32689757120000   -0.20699047580000
C        -2.83986412750000   -1.01456047820000   -0.07177176600000
C        -1.82435257630000   -1.92903485570000    0.15448978620000
C        -0.51582950580000   -1.49586747170000    0.25009075680000
C        -0.19637192210000   -0.14574872030000    0.11687262930000
C         1.17655965130000    0.32355239950000    0.27887830700000
C         2.28206828410000   -0.36652821880000    0.04866705300000
F         2.38507487670000   -1.60913504330000   -0.40894670860000
F         3.50607783670000    0.12656100130000    0.23660628650000
H        -1.46731171780000    4.22564108150000   -0.08560577670000
H        -2.62052394210000    3.01237009670000    0.65233282510000
H        -0.02114673150000    2.43405028320000   -0.85100208090000
H        -3.32563337380000    1.03696779770000   -0.40872589000000
H        -3.86421628030000   -1.34752165850000   -0.14803686350000
H        -2.05118810920000   -2.97910328770000    0.26043674690000
H         0.26490048310000   -2.21274156200000    0.44890386720000
H         1.32193182170000    1.33530771760000    0.62631480690000
$end

$rem
BASIS = 6-31G*
GUI = 2
METHOD = B3LYP
PRINT_ORBITALS false
MOLDEN_FORMAT false
--------------------------------------------------------------

             Standard Nuclear Orientation (Angstroms)
    I     Atom           X                Y                Z
 ----------------------------------------------------------------
    1      C       2.3952036465     2.6084735662    -0.1360334765
    2      C       1.3860239051     1.8653246211     0.2963900815
    3      C       1.2836072398     0.4173328784     0.1022448943
    4      C       2.4272287546    -0.3735826898     0.1750759182
    5      C       2.3583350035    -1.7473375466     0.0441382489
    6      C       1.1323014528    -2.3580704675    -0.1621829078
    7      C      -0.0144429329    -1.5915417603    -0.2422903909
    8      C       0.0400622324    -0.2048272347    -0.1131669166
    9      C      -1.1601062347     0.6135602200    -0.2590028188
   10      C      -2.4060804697     0.2441837732    -0.0090686981
   11      F      -2.8300596856    -0.9247441371     0.4577734575
   12      F      -3.4567891677     1.0456800097    -0.1830587383
   13      H       2.4344668619     3.6691195796     0.0439852980
   14      H       3.2107654683     2.1902834359    -0.7022602585
   15      H       0.5743397618     2.3304152953     0.8407413893
   16      H       3.3790373141     0.1008594698     0.3613332852
   17      H       3.2577008458    -2.3414835306     0.1082356511
   18      H       1.0690353882    -3.4308341831    -0.2646438509
   19      H      -0.9610875736    -2.0744553059    -0.4256830338
   20      H      -1.0354139717     1.6265802246    -0.6107645608
 ----------------------------------------------------------------

    9    -585.5115452700      4.74e-06  Convergence criterion met
 Total energy in the final basis set =     -585.5115452700

                    Orbital Energies (a.u.)
 --------------------------------------------------------------

 Alpha MOs
 -- Occupied --
-24.7424 -24.7338 -10.3565 -10.2048 -10.2011 -10.1971 -10.1931 -10.1879
-10.1874 -10.1871 -10.1867 -10.1842  -1.2840  -1.2234  -0.8718  -0.8063
 -0.7952  -0.7381  -0.7274  -0.6443  -0.6289  -0.6037  -0.5747  -0.5593
 -0.5291  -0.5183  -0.5040  -0.4709  -0.4611  -0.4416  -0.4371  -0.4319
 -0.4295  -0.4203  -0.4075  -0.3797  -0.3747  -0.3465  -0.3409  -0.2946
 -0.2937  -0.2387  -0.2199

          Ground-State Mulliken Net Atomic Charges

     Atom                 Charge (a.u.)
  ----------------------------------------
      1 C                    -0.335941
      2 C                    -0.135372
      3 C                     0.095684
      4 C                    -0.186972
      5 C                    -0.125944
      6 C                    -0.128862
      7 C                    -0.190686
      8 C                     0.125460
      9 C                    -0.318850
     10 C                     0.553648
     11 F                    -0.235299
     12 F                    -0.248367
     13 H                     0.144891
     14 H                     0.146980
     15 H                     0.142020
     16 H                     0.131110
     17 H                     0.129102
     18 H                     0.130462
     19 H                     0.136122
     20 H                     0.170814
  ----------------------------------------
  Sum of atomic charges =     0.000000

                    Cartesian Multipole Moments
 -----------------------------------------------------------------
    Charge (ESU x 10^10)
                 0.0000
    Dipole Moment (Debye)
         X       1.0882      Y       0.1684      Z      -0.1706
       Tot       1.1143
    Quadrupole Moments (Debye-Ang)
        XX     -66.3645     XY       0.1418     YY     -61.4597
        XZ       0.0622     YZ       0.8484     ZZ     -69.8660

 Total job time:  26.49s(wall), 26.39s(cpu)
        *  Thank you very much for using Q-Chem.  Have a nice day.  *
