 Q-Chem 5.2, Q-Chem, Inc., Pleasanton, CA (2019)
 Q-Chem 5.2.1 for Intel X86 EM64T Linux

User input:
--------------------------------------------------------------
$molecule
0 1
C        -3.93228437500000   -1.90894420720000    0.35774402970000
C        -2.62669395430000   -1.86659236240000    0.12285767110000
C        -1.80037881490000   -0.66672933500000    0.03920153900000
C        -2.33496001140000    0.61372704960000   -0.04634132670000
C        -1.52299841340000    1.74436945730000   -0.11915918640000
C        -2.15026464280000    3.05921808080000   -0.20421824340000
C        -1.53404748050000    4.23374342990000   -0.15741423710000
C        -0.14036623380000    1.57290781880000   -0.11239740860000
C         0.39375784050000    0.29867955450000   -0.03537446520000
O         1.80508249030000    0.25704146040000   -0.04256122600000
C         2.44142160300000   -0.89001102000000    0.01069719340000
F         2.20587123130000   -1.60976229280000    1.12436799850000
F         2.17808085980000   -1.72425365970000   -1.01321495290000
F         3.75088034430000   -0.65844935210000   -0.01842656020000
C        -0.41011704540000   -0.82094024750000    0.03748942180000
H        -4.45958533540000   -2.84577291010000    0.40814858500000
H        -4.52586769890000   -1.02553462020000    0.51890914360000
H        -2.08598013940000   -2.79544287910000   -0.00716454880000
H        -3.40613740470000    0.74174491710000   -0.06452959410000
H        -3.22816256290000    3.03528069800000   -0.30481032220000
H        -0.46799361570000    4.33007392410000   -0.04604278200000
H        -2.08544824710000    5.15571276540000   -0.22451579740000
H         0.53544855110000    2.40807749010000   -0.17598792930000
H         0.00344393090000   -1.81519071490000    0.09785397810000
$end

$rem
BASIS = 6-31G*
GUI = 2
METHOD = B3LYP
PRINT_ORBITALS false
MOLDEN_FORMAT false
--------------------------------------------------------------

             Standard Nuclear Orientation (Angstroms)
    I     Atom           X                Y                Z
 ----------------------------------------------------------------
    1      C       2.6322670159    -3.3931314422    -0.1347705668
    2      C       1.4661118648    -2.7916508070     0.0648160954
    3      C       1.2197450201    -1.3534117360     0.0493857676
    4      C       2.2425624279    -0.4119775147     0.0638546122
    5      C       1.9801329050     0.9568216437     0.0425018365
    6      C       3.1015095848     1.8905470985     0.0565013120
    7      C       3.0345422365     3.2087590214    -0.0822672096
    8      C       0.6530768384     1.3801159872     0.0131649286
    9      C      -0.3666680549     0.4447237996     0.0067979975
   10      O      -1.6652411758     0.9985501054    -0.0178377523
   11      C      -2.7243026635     0.2227667431    -0.0113370909
   12      F      -2.8182830236    -0.6052499513    -1.0693279132
   13      F      -2.8297521186    -0.5713975705     1.0712009766
   14      F      -3.8156949963     0.9828218726    -0.0295076822
   15      C      -0.1069561097    -0.9107121382     0.0271843494
   16      H       2.7177072327    -4.4656784197    -0.1107311992
   17      H       3.5407942160    -2.8531086504    -0.3389312041
   18      H       0.5863521676    -3.3971294339     0.2421829393
   19      H       3.2687297886    -0.7433800717     0.0998169318
   20      H       4.0704760967     1.4244986982     0.1847919126
   21      H       2.1066357229     3.7346405026    -0.2257669569
   22      H       3.9221614171     3.8172864380    -0.0622808683
   23      H       0.3902501499     2.4237338225     0.0053097761
   24      H      -0.8997325313    -1.6419368173     0.0220300642
 ----------------------------------------------------------------

    9    -799.2990817517      2.59e-06  Convergence criterion met
 Total energy in the final basis set =     -799.2990817517

                    Orbital Energies (a.u.)
 --------------------------------------------------------------

 Alpha MOs
 -- Occupied --
-24.7296 -24.7278 -24.7277 -19.2242 -10.4821 -10.2733 -10.2118 -10.2115
-10.2035 -10.2017 -10.2003 -10.2001 -10.1968 -10.1902 -10.1900  -1.3264
 -1.2260  -1.2211  -1.1216  -0.8858  -0.8178  -0.8038  -0.7562  -0.7409
 -0.7009  -0.6524  -0.6490  -0.6221  -0.6021  -0.5993  -0.5519  -0.5498
 -0.5241  -0.5085  -0.4736  -0.4707  -0.4675  -0.4620  -0.4569  -0.4416
 -0.4360  -0.4332  -0.4204  -0.4086  -0.4015  -0.3969  -0.3878  -0.3792
 -0.3737  -0.3657  -0.3520  -0.3284  -0.2858  -0.2403  -0.2329

          Ground-State Mulliken Net Atomic Charges

     Atom                 Charge (a.u.)
  ----------------------------------------
      1 C                    -0.346922
      2 C                    -0.114205
      3 C                     0.171024
      4 C                    -0.255942
      5 C                     0.181300
      6 C                    -0.113497
      7 C                    -0.348260
      8 C                    -0.237034
      9 C                     0.351813
     10 O                    -0.523516
     11 C                     0.975020
     12 F                    -0.276722
     13 F                    -0.276869
     14 F                    -0.253382
     15 C                    -0.240452
     16 H                     0.150351
     17 H                     0.146996
     18 H                     0.135179
     19 H                     0.131019
     20 H                     0.132338
     21 H                     0.148465
     22 H                     0.150299
     23 H                     0.149578
     24 H                     0.163417
  ----------------------------------------
  Sum of atomic charges =     0.000000

                    Cartesian Multipole Moments
 -----------------------------------------------------------------
    Charge (ESU x 10^10)
                 0.0000
    Dipole Moment (Debye)
         X       2.5672      Y      -0.2628      Z       0.0158
       Tot       2.5807
    Quadrupole Moments (Debye-Ang)
        XX     -82.0300     XY       1.0063     YY     -75.7462
        XZ      -0.2022     YZ      -0.3720     ZZ     -88.1863

 Total job time:  36.78s(wall), 36.65s(cpu)
        *  Thank you very much for using Q-Chem.  Have a nice day.  *
