 Q-Chem 5.2, Q-Chem, Inc., Pleasanton, CA (2019)
 Q-Chem 5.2.1 for Intel X86 EM64T Linux

User input:
--------------------------------------------------------------
$molecule
0 1
C         0.99312615820000    2.71447254330000   -0.80332011630000
C         0.44222393870000    1.76045638250000   -0.06384956970000
C         0.98214264250000    0.40705621970000    0.01210967770000
N         2.25040362030000    0.25376303760000   -0.36010184390000
C         2.83631066480000   -0.91617181950000   -0.23044826340000
C         2.20798046600000   -2.02351498790000    0.32474628030000
C         0.88229615510000   -1.89334543430000    0.69299262070000
C         0.22814547950000   -0.67602234160000    0.50920666040000
C        -1.19354260290000   -0.59473931740000    0.83876080080000
C        -2.12553666090000   -0.02323644960000    0.09454521240000
F        -1.95787265090000    0.57422113350000   -1.07755977890000
F        -3.41644826560000    0.00297527140000    0.41973170110000
H         0.59373904360000    3.71322927560000   -0.83273150300000
H         1.86088370670000    2.50595905730000   -1.40447789620000
H        -0.43461914100000    1.96117054150000    0.53639852020000
H         3.86260514320000   -0.96449042220000   -0.57063207170000
H         2.73481597450000   -2.95545446910000    0.45463848500000
H         0.33974163190000   -2.73356558620000    1.10318926840000
H        -1.52862125410000   -1.09620345480000    1.73502370950000
$end

$rem
BASIS = 6-31G*
GUI = 2
METHOD = B3LYP
PRINT_ORBITALS false
MOLDEN_FORMAT false
--------------------------------------------------------------

             Standard Nuclear Orientation (Angstroms)
    I     Atom           X                Y                Z
 ----------------------------------------------------------------
    1      C       0.3662168922     2.9525143629     0.1661919493
    2      C       0.0086019983     1.7244765957     0.5190256349
    3      C       0.8080995003     0.5457214108     0.2023018232
    4      N       2.0859486549     0.7607268360    -0.1000230510
    5      C       2.8929997807    -0.2570437120    -0.3041217468
    6      C       2.4926447927    -1.5812784075    -0.1801577705
    7      C       1.1632352158    -1.8270708944     0.1066254268
    8      C       0.2805128394    -0.7603537113     0.2693569697
    9      C      -1.1326391589    -1.0566114072     0.4966072115
   10      C      -2.1508244190    -0.4566601837    -0.0970615510
   11      F      -2.0915805683     0.5113107953    -1.0017268174
   12      F      -3.4247645802    -0.7782524657     0.1186719603
   13      H      -0.2250483467     3.8135026127     0.4250254062
   14      H       1.2657295488     3.1168835299    -0.4010218293
   15      H      -0.8982341120     1.5514916614     1.0821971994
   16      H       3.9123528942    -0.0001389299    -0.5615304296
   17      H       3.1940722087    -2.3895531329    -0.3129372229
   18      H       0.7951459198    -2.8404529150     0.1851350093
   19      H      -1.3716370106    -1.8765099640     1.1581792549
 ----------------------------------------------------------------

    9    -601.5476414015      5.06e-06  Convergence criterion met
 Total energy in the final basis set =     -601.5476414015

                    Orbital Energies (a.u.)
 --------------------------------------------------------------

 Alpha MOs
 -- Occupied --
-24.7438 -24.7393 -14.3242 -10.3625 -10.2286 -10.2208 -10.2134 -10.2085
-10.2083 -10.1975 -10.1838 -10.1768  -1.2879  -1.2276  -0.9516  -0.8374
 -0.8057  -0.7748  -0.7347  -0.6567  -0.6446  -0.6180  -0.5764  -0.5707
 -0.5432  -0.5221  -0.5023  -0.4920  -0.4608  -0.4506  -0.4435  -0.4392
 -0.4274  -0.4146  -0.4077  -0.3969  -0.3858  -0.3532  -0.3080  -0.3027
 -0.2598  -0.2523  -0.2247

          Ground-State Mulliken Net Atomic Charges

     Atom                 Charge (a.u.)
  ----------------------------------------
      1 C                    -0.324972
      2 C                    -0.099932
      3 C                     0.249921
      4 N                    -0.479872
      5 C                     0.042809
      6 C                    -0.148587
      7 C                    -0.139675
      8 C                     0.119715
      9 C                    -0.346161
     10 C                     0.571105
     11 F                    -0.227227
     12 F                    -0.244670
     13 H                     0.141186
     14 H                     0.167605
     15 H                     0.129803
     16 H                     0.140025
     17 H                     0.137437
     18 H                     0.140688
     19 H                     0.170801
  ----------------------------------------
  Sum of atomic charges =     0.000000

                    Cartesian Multipole Moments
 -----------------------------------------------------------------
    Charge (ESU x 10^10)
                 0.0000
    Dipole Moment (Debye)
         X       0.1479      Y      -1.9996      Z       0.4682
       Tot       2.0590
    Quadrupole Moments (Debye-Ang)
        XX     -66.4834     XY      -4.1574     YY     -61.0756
        XZ      -2.6910     YZ      -0.4342     ZZ     -67.9505

 Total job time:  24.28s(wall), 23.92s(cpu)
        *  Thank you very much for using Q-Chem.  Have a nice day.  *
