 Q-Chem 5.2, Q-Chem, Inc., Pleasanton, CA (2019)
 Q-Chem 5.2.1 for Intel X86 EM64T Linux

User input:
--------------------------------------------------------------
$molecule
0 1
C         0.02538398390000    2.54405987960000    0.15645407740000
C        -0.59879896810000    1.69872517240000   -0.64905201990000
C        -1.08658777170000    0.37424421340000   -0.25070201880000
C        -2.39014187040000    0.02628372150000   -0.60036427200000
C        -2.95886319080000   -1.15745882720000   -0.17258554590000
C        -2.22657970810000   -2.02380494840000    0.62282823130000
C        -0.92403623610000   -1.70847182580000    0.95701629680000
C        -0.33220505470000   -0.52784323200000    0.51222573600000
C         1.08226322720000   -0.31907226970000    0.83804703300000
C         2.01258377220000    0.07086475040000   -0.01433468510000
F         1.84277218130000    0.37846200630000   -1.29429299740000
F         3.30068218380000    0.20405043510000    0.30057669310000
H         0.32414576210000    3.52376897220000   -0.17434877930000
H         0.25420511580000    2.29357992000000    1.17955621950000
H        -0.84738530550000    1.99711901930000   -1.65938787770000
H        -2.96734591860000    0.71387918370000   -1.20171031620000
H        -3.97290851740000   -1.40156341620000   -0.45175751120000
H        -2.66600677840000   -2.94533920460000    0.97373735410000
H        -0.34077252520000   -2.39326296020000    1.55556104640000
H         1.41335479210000   -0.58357467750000    1.83136204880000
$end

$rem
BASIS = 6-31G*
GUI = 2
METHOD = B3LYP
PRINT_ORBITALS false
MOLDEN_FORMAT false
--------------------------------------------------------------

             Standard Nuclear Orientation (Angstroms)
    I     Atom           X                Y                Z
 ----------------------------------------------------------------
    1      C      -0.9632696074     2.1278827688    -1.0141204548
    2      C      -0.1208203791     1.8898723346    -0.0208100659
    3      C       0.8068390289     0.7551408502     0.0311796638
    4      C       2.1352988497     1.0127136275     0.3650123353
    5      C       3.0919377330     0.0169732372     0.3329479869
    6      C       2.7337093764    -1.2685929408    -0.0391673503
    7      C       1.4167382001    -1.5486764307    -0.3471873127
    8      C       0.4387783978    -0.5572250162    -0.2961443445
    9      C      -0.9471056445    -0.9644512634    -0.5490426593
   10      C      -1.9886968296    -0.6278252215     0.1897891893
   11      F      -1.9869070592     0.1580154289     1.2594604464
   12      F      -3.2305265860    -1.0548264975    -0.0374417224
   13      H      -1.5926831393     3.0009538989    -1.0243402276
   14      H      -1.0504984398     1.4646830282    -1.8593390943
   15      H      -0.0309236439     2.5968039628     0.7939161768
   16      H       2.4170935960     2.0209087262     0.6327873558
   17      H       4.1159644646     0.2430766532     0.5899663895
   18      H       3.4760613280    -2.0513211013    -0.0805068550
   19      H       1.1281808247    -2.5554397562    -0.6128064364
   20      H      -1.1267469352    -1.6632374683    -1.3525877515
 ----------------------------------------------------------------

    9    -585.5038699595      4.55e-06  Convergence criterion met
 Total energy in the final basis set =     -585.5038699595

                    Orbital Energies (a.u.)
 --------------------------------------------------------------

 Alpha MOs
 -- Occupied --
-24.7330 -24.7289 -10.3494 -10.2038 -10.1971 -10.1958 -10.1893 -10.1886
-10.1886 -10.1882 -10.1877 -10.1775  -1.2767  -1.2167  -0.8714  -0.8040
 -0.7900  -0.7400  -0.7250  -0.6421  -0.6171  -0.6050  -0.5685  -0.5631
 -0.5226  -0.5116  -0.4974  -0.4707  -0.4613  -0.4383  -0.4337  -0.4316
 -0.4237  -0.4180  -0.4051  -0.3773  -0.3681  -0.3508  -0.3420  -0.2866
 -0.2829  -0.2412  -0.2175

          Ground-State Mulliken Net Atomic Charges

     Atom                 Charge (a.u.)
  ----------------------------------------
      1 C                    -0.327567
      2 C                    -0.142764
      3 C                     0.104598
      4 C                    -0.183484
      5 C                    -0.124068
      6 C                    -0.127853
      7 C                    -0.176700
      8 C                     0.119895
      9 C                    -0.354307
     10 C                     0.582725
     11 F                    -0.234117
     12 F                    -0.249864
     13 H                     0.143354
     14 H                     0.149327
     15 H                     0.137746
     16 H                     0.129494
     17 H                     0.130014
     18 H                     0.130154
     19 H                     0.129249
     20 H                     0.164168
  ----------------------------------------
  Sum of atomic charges =     0.000000

                    Cartesian Multipole Moments
 -----------------------------------------------------------------
    Charge (ESU x 10^10)
                 0.0000
    Dipole Moment (Debye)
         X       1.0931      Y      -0.1526      Z      -0.4739
       Tot       1.2011
    Quadrupole Moments (Debye-Ang)
        XX     -65.9725     XY      -1.5094     YY     -62.1815
        XZ       2.7551     YZ       2.5200     ZZ     -68.1391

 Total job time:  28.34s(wall), 28.24s(cpu)
        *  Thank you very much for using Q-Chem.  Have a nice day.  *
