 Q-Chem 5.2, Q-Chem, Inc., Pleasanton, CA (2019)
 Q-Chem 5.2.1 for Intel X86 EM64T Linux

User input:
--------------------------------------------------------------
$molecule
0 1
C        -3.73504507990000    0.81266058920000   -0.01383955360000
C        -3.01414021540000   -0.30181658510000   -0.03270211460000
C        -1.55932109670000   -0.40600566330000   -0.01543324310000
C        -0.97490729660000   -1.67435681330000   -0.01591438530000
C         0.39771254270000   -1.81352166180000    0.00413176060000
C         1.20185399320000   -0.68936839970000    0.02015071210000
F         2.53684095370000   -0.89379340370000    0.04633631500000
C         0.67166380340000    0.60374150680000    0.01734479290000
C         1.45261522290000    1.83589113420000    0.03210199830000
C         2.77094272500000    1.96693445240000   -0.05790656020000
C        -0.71982857830000    0.70372452070000    0.00287322560000
H        -4.81085477820000    0.78100347620000   -0.02887219610000
H        -3.29566122440000    1.79476183740000    0.01735655420000
H        -3.52779335220000   -1.25513149050000   -0.06263291900000
H        -1.60087314150000   -2.55427266020000   -0.02937647150000
H         0.86260213810000   -2.78729599340000    0.00822744590000
H         0.84527256270000    2.72941273010000    0.11869349160000
H         3.44433285130000    1.13521988340000   -0.15482004590000
H         3.22656929050000    2.94286099390000   -0.03880701890000
H        -1.15200631660000    1.69268611420000    0.00221418390000
$end

$rem
BASIS = 6-31G*
GUI = 2
METHOD = B3LYP
PRINT_ORBITALS false
MOLDEN_FORMAT false
--------------------------------------------------------------

             Standard Nuclear Orientation (Angstroms)
    I     Atom           X                Y                Z
 ----------------------------------------------------------------
    1      C       3.5499376863    -1.2461058732     0.0068204391
    2      C       2.9786571743    -0.0481610963    -0.0193688704
    3      C       1.5493173467     0.2425826460    -0.0089775327
    4      C       1.1331356883     1.5756193562    -0.0167439547
    5      C      -0.2101963772     1.8904735362    -0.0033374938
    6      C      -1.1524833002     0.8793151599     0.0132374471
    7      F      -2.4501152531     1.2540651627     0.0327105797
    8      C      -0.7932490385    -0.4713049749     0.0175661521
    9      C      -1.7264437391    -1.5925512178     0.0333810985
   10      C      -3.0503028982    -1.5531102394    -0.0620266098
   11      C       0.5738226598    -0.7497107257     0.0096739263
   12      H       4.6209153554    -1.3533178997    -0.0035272019
   13      H       2.9876031962    -2.1633052169     0.0396764357
   14      H       3.6109292276     0.8309328931    -0.0505219630
   15      H       1.8672655798     2.3675322951    -0.0306566837
   16      H      -0.5458085752     2.9160160986    -0.0049074777
   17      H      -1.2395881731    -2.5564712179     0.1259766012
   18      H      -3.6105750063    -0.6420202156    -0.1650108008
   19      H      -3.6279016175    -2.4621458148    -0.0413622393
   20      H       0.8750260782    -1.7860868125     0.0145905009
 ----------------------------------------------------------------

    9    -486.2793129068      2.10e-06  Convergence criterion met
 Total energy in the final basis set =     -486.2793129068

                    Orbital Energies (a.u.)
 --------------------------------------------------------------

 Alpha MOs
 -- Occupied --
-24.7098 -10.2730 -10.2060 -10.1988 -10.1971 -10.1958 -10.1951 -10.1940
-10.1932 -10.1818 -10.1790  -1.2209  -0.8757  -0.8077  -0.7874  -0.7391
 -0.7268  -0.6366  -0.6314  -0.5935  -0.5547  -0.5320  -0.5097  -0.4778
 -0.4641  -0.4622  -0.4414  -0.4389  -0.4305  -0.3964  -0.3905  -0.3785
 -0.3690  -0.3544  -0.3352  -0.3180  -0.2886  -0.2374  -0.2192

          Ground-State Mulliken Net Atomic Charges

     Atom                 Charge (a.u.)
  ----------------------------------------
      1 C                    -0.352666
      2 C                    -0.116111
      3 C                     0.192089
      4 C                    -0.197788
      5 C                    -0.194422
      6 C                     0.313157
      7 F                    -0.290090
      8 C                     0.128258
      9 C                    -0.107949
     10 C                    -0.357971
     11 C                    -0.281183
     12 H                     0.145372
     13 H                     0.142767
     14 H                     0.127531
     15 H                     0.136196
     16 H                     0.145609
     17 H                     0.129714
     18 H                     0.162268
     19 H                     0.140711
     20 H                     0.134508
  ----------------------------------------
  Sum of atomic charges =     0.000000

                    Cartesian Multipole Moments
 -----------------------------------------------------------------
    Charge (ESU x 10^10)
                 0.0000
    Dipole Moment (Debye)
         X       1.0428      Y      -0.1414      Z      -0.0245
       Tot       1.0527
    Quadrupole Moments (Debye-Ang)
        XX     -60.5974     XY       2.1127     YY     -56.2548
        XZ       0.1741     YZ      -0.3012     ZZ     -67.4112

 Total job time:  22.32s(wall), 21.81s(cpu)
        *  Thank you very much for using Q-Chem.  Have a nice day.  *
