 Q-Chem 5.2, Q-Chem, Inc., Pleasanton, CA (2019)
 Q-Chem 5.2.1 for Intel X86 EM64T Linux

User input:
--------------------------------------------------------------
$molecule
0 1
C         3.67154309950000   -0.94376816990000   -0.38599816500000
C         2.52875152480000   -1.28871753640000    0.19545421390000
C         1.26877763060000   -0.55560071080000    0.13010760650000
C         0.07223724470000   -1.25662874590000    0.14271786870000
C        -1.17498148720000   -0.62999162640000    0.04117198830000
C        -2.38491982610000   -1.43681885050000    0.04514359990000
C        -3.64205933160000   -1.01492689180000   -0.03213460210000
C        -1.10349231300000    0.76180850350000   -0.05537723440000
F        -2.21593680450000    1.50520079340000   -0.17551989900000
N        -0.00212295220000    1.46692222420000   -0.01889495030000
C         1.17580640800000    0.85497391180000    0.07358699700000
N         2.26033390630000    1.67724200250000    0.09592980130000
H         4.54834969440000   -1.56303483760000   -0.29970073470000
H         3.76447469350000   -0.06825114030000   -1.00549497180000
H         2.47540604090000   -2.22168698480000    0.74449134610000
H         0.10306754710000   -2.33550680480000    0.21403211850000
H        -2.19173998950000   -2.50085982490000    0.12207731470000
H        -3.91191874530000    0.02225094290000   -0.11018925170000
H        -4.45766007280000   -1.71816419390000   -0.01916764040000
H         2.04433401220000    2.65111149890000    0.23690651420000
H         3.10707061380000    1.32564441080000    0.51175165840000
$end

$rem
BASIS = 6-31G*
GUI = 2
METHOD = B3LYP
PRINT_ORBITALS false
MOLDEN_FORMAT false
--------------------------------------------------------------

             Standard Nuclear Orientation (Angstroms)
    I     Atom           X                Y                Z
 ----------------------------------------------------------------
    1      C       3.5978328870     1.0000381710     0.4128170235
    2      C       2.4451613592     1.3227845260    -0.1618417073
    3      C       1.2082342140     0.5501245325    -0.1141715364
    4      C      -0.0092290782     1.2142686679    -0.1121918280
    5      C      -1.2366807363     0.5475892334    -0.0259296163
    6      C      -2.4707810773     1.3168516420    -0.0129518589
    7      C      -3.7144183610     0.8550106849     0.0536343140
    8      C      -1.1225883186    -0.8431844178     0.0394280723
    9      F      -2.2117551887    -1.6228230693     0.1417911784
   10      N      -0.0001128546    -1.5132245668    -0.0118146493
   11      C       1.1585298074    -0.8635498972    -0.0894112400
   12      N       2.2677586467    -1.6514934571    -0.1291634334
   13      H       4.4552682998     1.6476608309     0.3412791981
   14      H       3.7173910577     0.1140857389     1.0125976298
   15      H       2.3633906134     2.2657781641    -0.6898531167
   16      H      -0.0114649027     2.2949143223    -0.1592456960
   17      H      -2.3102873478     2.3877714082    -0.0658012486
   18      H      -3.9523793703    -0.1914399149     0.1081337865
   19      H      -4.5511886558     1.5330422006     0.0556718823
   20      H       2.0817502936    -2.6281114471    -0.2921676606
   21      H       3.1034319884    -1.2648663680    -0.5361785375
 ----------------------------------------------------------------

    9    -557.6864450801      2.40e-06  Convergence criterion met
 Total energy in the final basis set =     -557.6864450801

                    Orbital Energies (a.u.)
 --------------------------------------------------------------

 Alpha MOs
 -- Occupied --
-24.7064 -14.3523 -14.3268 -10.3003 -10.2698 -10.2064 -10.2021 -10.1996
-10.1989 -10.1901 -10.1864 -10.1715  -1.2226  -0.9802  -0.9040  -0.8348
 -0.8034  -0.7527  -0.7261  -0.6533  -0.6406  -0.5978  -0.5816  -0.5547
 -0.5296  -0.4946  -0.4870  -0.4733  -0.4717  -0.4598  -0.4331  -0.4222
 -0.4072  -0.3941  -0.3860  -0.3693  -0.3488  -0.3386  -0.3117  -0.2827
 -0.2776  -0.2498  -0.2000

          Ground-State Mulliken Net Atomic Charges

     Atom                 Charge (a.u.)
  ----------------------------------------
      1 C                    -0.371902
      2 C                    -0.137110
      3 C                     0.146798
      4 C                    -0.245463
      5 C                     0.097986
      6 C                    -0.113761
      7 C                    -0.364226
      8 C                     0.452818
      9 F                    -0.264066
     10 N                    -0.539779
     11 C                     0.423798
     12 N                    -0.770607
     13 H                     0.146073
     14 H                     0.163702
     15 H                     0.137831
     16 H                     0.141932
     17 H                     0.125053
     18 H                     0.158540
     19 H                     0.136721
     20 H                     0.342793
     21 H                     0.332868
  ----------------------------------------
  Sum of atomic charges =     0.000000

                    Cartesian Multipole Moments
 -----------------------------------------------------------------
    Charge (ESU x 10^10)
                 0.0000
    Dipole Moment (Debye)
         X       2.5918      Y       1.2689      Z      -1.0116
       Tot       3.0579
    Quadrupole Moments (Debye-Ang)
        XX     -61.3728     XY      -4.7304     YY     -64.7787
        XZ      -2.2524     YZ       0.7043     ZZ     -71.1560

 Total job time:  25.65s(wall), 25.56s(cpu)
        *  Thank you very much for using Q-Chem.  Have a nice day.  *
