 Q-Chem 5.2, Q-Chem, Inc., Pleasanton, CA (2019)
 Q-Chem 5.2.1 for Intel X86 EM64T Linux

User input:
--------------------------------------------------------------
$molecule
0 1
C         4.20132886580000   -0.23939032810000    0.21955976870000
C         3.13550478060000    0.53816502360000    0.06736663010000
C         1.74749552220000    0.10760385660000   -0.02753135500000
C         1.34995416600000   -1.22669619870000    0.06556486730000
C         0.01911014890000   -1.56592862450000   -0.03273070160000
C        -0.97198417470000   -0.60234819570000   -0.22670609660000
C        -2.37143663300000   -1.00897832420000   -0.33300596480000
C        -2.91427680410000   -2.02991220790000    0.31726527870000
C        -0.58702593060000    0.74271487900000   -0.33068531990000
C        -1.59869505980000    1.84390951700000   -0.48854396020000
C        -2.35729306070000    2.08540217670000    0.81748235400000
C         0.75465613290000    1.06756546560000   -0.22335539880000
H         5.19292386750000    0.17570191070000    0.27924287770000
H         4.13637328460000   -1.31157502320000    0.28967186420000
H         3.27766949470000    1.61058228110000    0.00081832570000
H         2.08453995140000   -2.00303304730000    0.21280608210000
H        -0.26881811810000   -2.60559900780000    0.02119949880000
H        -2.99195558800000   -0.41586845110000   -0.99250497450000
H        -2.35272942260000   -2.63024755130000    1.01351565730000
H        -3.95120970330000   -2.29244904720000    0.19264216860000
H        -2.31038464410000    1.59696640090000   -1.27967791480000
H        -1.08726769490000    2.76368271420000   -0.78016885860000
H        -2.88775436700000    1.18612891050000    1.12225991190000
H        -3.07778583560000    2.89125123250000    0.69543214220000
H        -1.66316579440000    2.35774366220000    1.60968089580000
H         1.04537649640000    2.10749421060000   -0.29565555180000
$end

$rem
BASIS = 6-31G*
GUI = 2
METHOD = B3LYP
PRINT_ORBITALS false
MOLDEN_FORMAT false
--------------------------------------------------------------

             Standard Nuclear Orientation (Angstroms)
    I     Atom           X                Y                Z
 ----------------------------------------------------------------
    1      C       4.2317870297    -0.2092036629     0.2142105212
    2      C       3.1569676773     0.5560947401     0.0631549980
    3      C       1.7744049619     0.1092746609    -0.0359933875
    4      C       1.3927637216    -1.2300653491     0.0510754105
    5      C       0.0662704179    -1.5848637877    -0.0510031799
    6      C      -0.9359859944    -0.6324907534    -0.2429650051
    7      C      -2.3302583571    -1.0554736379    -0.3534410855
    8      C      -2.8619475502    -2.0854425502     0.2917757602
    9      C      -0.5670368901     0.7175037230    -0.3408969995
   10      C      -1.5915849600     1.8070885969    -0.4962336113
   11      C      -2.3553583413     2.0342351796     0.8093501727
   12      C       0.7704504033     1.0580155855    -0.2298214098
   13      H       5.2182134657     0.2175277344     0.2773570847
   14      H       4.1795976681    -1.2823626290     0.2799452750
   15      H       3.2863513222     1.6303994314     0.0011262984
   16      H       2.1363634113    -1.9981043010     0.1965773823
   17      H      -0.2092370995    -2.6281247111    -0.0017293234
   18      H      -2.9566839956    -0.4672315073    -1.0117147020
   19      H      -2.2944678251    -2.6817646603     0.9866637214
   20      H      -3.8954262792    -2.3599160617     0.1642126107
   21      H      -2.2988432779     1.5547755186    -1.2896437722
   22      H      -1.0907299565     2.7340956048    -0.7832667769
   23      H      -2.8755157210     1.1274453151     1.1095824269
   24      H      -3.0852656848     2.8318526725     0.6891819634
   25      H      -1.6659682030     2.3117293891     1.6038936121
   26      H       1.0487794633     2.1016417351    -0.2974589047
 ----------------------------------------------------------------

    8    -465.6740190760      5.52e-06  Convergence criterion met
 Total energy in the final basis set =     -465.6740190760

                    Orbital Energies (a.u.)
 --------------------------------------------------------------

 Alpha MOs
 -- Occupied --
-10.1904 -10.1897 -10.1890 -10.1888 -10.1874 -10.1843 -10.1827 -10.1813
-10.1805 -10.1791 -10.1772 -10.1707  -0.8674  -0.8097  -0.7846  -0.7628
 -0.7273  -0.7089  -0.6383  -0.6229  -0.5976  -0.5650  -0.5386  -0.5066
 -0.4805  -0.4657  -0.4475  -0.4371  -0.4234  -0.4202  -0.4113  -0.3937
 -0.3784  -0.3735  -0.3589  -0.3570  -0.3489  -0.3320  -0.3224  -0.3071
 -0.2657  -0.2434  -0.2092

          Ground-State Mulliken Net Atomic Charges

     Atom                 Charge (a.u.)
  ----------------------------------------
      1 C                    -0.354413
      2 C                    -0.113362
      3 C                     0.194753
      4 C                    -0.189047
      5 C                    -0.184952
      6 C                     0.106915
      7 C                    -0.131253
      8 C                    -0.341561
      9 C                     0.132029
     10 C                    -0.345309
     11 C                    -0.442118
     12 C                    -0.277766
     13 H                     0.143123
     14 H                     0.142137
     15 H                     0.125515
     16 H                     0.124250
     17 H                     0.128290
     18 H                     0.134840
     19 H                     0.144823
     20 H                     0.142097
     21 H                     0.144976
     22 H                     0.142286
     23 H                     0.161020
     24 H                     0.142073
     25 H                     0.150760
     26 H                     0.119895
  ----------------------------------------
  Sum of atomic charges =     0.000000

                    Cartesian Multipole Moments
 -----------------------------------------------------------------
    Charge (ESU x 10^10)
                 0.0000
    Dipole Moment (Debye)
         X      -0.3431      Y       0.2242      Z      -0.0406
       Tot       0.4119
    Quadrupole Moments (Debye-Ang)
        XX     -67.2630     XY       0.0921     YY     -66.8421
        XZ       1.5113     YZ      -1.8350     ZZ     -75.7758

 Total job time:  28.79s(wall), 28.69s(cpu)
        *  Thank you very much for using Q-Chem.  Have a nice day.  *
