 Q-Chem 5.2, Q-Chem, Inc., Pleasanton, CA (2019)
 Q-Chem 5.2.1 for Intel X86 EM64T Linux

User input:
--------------------------------------------------------------
$molecule
0 1
C        -0.15527887110000   -3.67479859750000    1.03815581080000
C         0.20146204480000   -2.52654517760000    0.47834946000000
C        -0.70278010310000   -1.40698277130000    0.21776221970000
C        -2.04993989980000   -1.62348791370000   -0.06352930790000
C        -2.90211850460000   -0.57299936560000   -0.34605020210000
C        -2.42642962020000    0.72663935840000   -0.34565681880000
C        -1.09035355480000    0.94344209330000   -0.06925429620000
F        -0.64623230620000    2.21543489770000   -0.02580347640000
C        -0.20306492480000   -0.09369467340000    0.20622392590000
C         1.19894425420000    0.18378407920000    0.53288654270000
C         1.97839837750000    1.00823507960000   -0.14647363820000
F         1.67353186100000    1.65236161760000   -1.26063522980000
F         3.24246542680000    1.26169163870000    0.18002340260000
H         0.55588784980000   -4.46634390430000    1.19946277550000
H        -1.16130043410000   -3.86329888280000    1.37326807920000
H         1.23164359190000   -2.37163420750000    0.18602500620000
H        -2.42463877010000   -2.63479524890000   -0.08266981550000
H        -3.94085765780000   -0.76316868730000   -0.56774704880000
H        -3.06788661280000    1.56829120940000   -0.55141402110000
H         1.62676644260000   -0.30541558740000    1.39438924350000
$end

$rem
BASIS = 6-31G*
GUI = 2
METHOD = B3LYP
PRINT_ORBITALS false
MOLDEN_FORMAT false
--------------------------------------------------------------

             Standard Nuclear Orientation (Angstroms)
    I     Atom           X                Y                Z
 ----------------------------------------------------------------
    1      C       2.6416281695     2.6195839946     0.1433073619
    2      C       1.5354783562     1.9518527993    -0.1561935379
    3      C       1.3855064147     0.4997626857    -0.0671863915
    4      C       2.4709798336    -0.3477113642    -0.2778380225
    5      C       2.3288841551    -1.7214467268    -0.2307998295
    6      C       1.0928497251    -2.2830557379     0.0378171634
    7      C       0.0146013640    -1.4445655066     0.2447365600
    8      F      -1.1751665694    -1.9992537828     0.5511195435
    9      C       0.1215679541    -0.0573006609     0.1911041725
   10      C      -1.0404002595     0.7966568253     0.4555264560
   11      C      -2.2395635392     0.6159900571    -0.0718874092
   12      F      -2.5830617546    -0.2901172111    -0.9719858686
   13      F      -3.2860583734     1.3909637407     0.1982429333
   14      H       2.6936728422     3.6907074692     0.0521598510
   15      H       3.5287708104     2.1292754171     0.5072955607
   16      H       0.6586902908     2.4916389372    -0.4887572591
   17      H       3.4340470201     0.0818688425    -0.5047092834
   18      H       3.1813314518    -2.3600716388    -0.4033823298
   19      H       0.9515645453    -3.3504291617     0.0919781277
   20      H      -0.9186897271     1.6240772194     1.1375067195
 ----------------------------------------------------------------

    9    -684.7437214499      5.39e-06  Convergence criterion met
 Total energy in the final basis set =     -684.7437214499

                    Orbital Energies (a.u.)
 --------------------------------------------------------------

 Alpha MOs
 -- Occupied --
-24.7389 -24.7352 -24.7066 -10.3585 -10.2730 -10.2114 -10.2066 -10.2032
-10.1984 -10.1970 -10.1956 -10.1915 -10.1884  -1.2844  -1.2245  -1.2185
 -0.8797  -0.8127  -0.7992  -0.7428  -0.7345  -0.6482  -0.6400  -0.6101
 -0.5776  -0.5709  -0.5419  -0.5219  -0.5164  -0.4989  -0.4817  -0.4662
 -0.4600  -0.4421  -0.4364  -0.4351  -0.4330  -0.4135  -0.4018  -0.3783
 -0.3742  -0.3680  -0.3439  -0.3008  -0.2860  -0.2371  -0.2296

          Ground-State Mulliken Net Atomic Charges

     Atom                 Charge (a.u.)
  ----------------------------------------
      1 C                    -0.336836
      2 C                    -0.128308
      3 C                     0.116286
      4 C                    -0.190775
      5 C                    -0.124531
      6 C                    -0.196369
      7 C                     0.331847
      8 F                    -0.291627
      9 C                     0.016861
     10 C                    -0.333870
     11 C                     0.578836
     12 F                    -0.229808
     13 F                    -0.245540
     14 H                     0.147861
     15 H                     0.147694
     16 H                     0.144062
     17 H                     0.132631
     18 H                     0.138300
     19 H                     0.146017
     20 H                     0.177269
  ----------------------------------------
  Sum of atomic charges =     0.000000

                    Cartesian Multipole Moments
 -----------------------------------------------------------------
    Charge (ESU x 10^10)
                 0.0000
    Dipole Moment (Debye)
         X       2.0479      Y       0.5968      Z       0.0998
       Tot       2.1354
    Quadrupole Moments (Debye-Ang)
        XX     -69.7656     XY      -1.6736     YY     -65.9815
        XZ      -0.4407     YZ       0.8104     ZZ     -73.6775

 Total job time:  27.77s(wall), 27.64s(cpu)
        *  Thank you very much for using Q-Chem.  Have a nice day.  *
