 Q-Chem 5.2, Q-Chem, Inc., Pleasanton, CA (2019)
 Q-Chem 5.2.1 for Intel X86 EM64T Linux

User input:
--------------------------------------------------------------
$molecule
0 1
C         4.56074597210000    1.34148355350000   -0.00481051520000
C         3.34295634720000    1.87596162600000    0.00411327280000
C         2.12228170690000    1.11193539780000   -0.00298418310000
C         0.81716188180000    1.53047107060000    0.00196328500000
C         0.00877784090000    0.36531104780000   -0.02034238700000
C        -1.45469546970000    0.48493872650000   -0.04834479170000
O        -2.03356640750000    1.49495685100000    0.27332395030000
O        -2.08107185910000   -0.60608221510000   -0.51159295010000
C        -3.50535012730000   -0.54312534700000   -0.59015811620000
C        -4.15535403880000   -0.85140306820000    0.75154309800000
C         0.89143760970000   -0.71118853040000   -0.02361787960000
C         0.80327313060000   -2.14894034630000    0.01858759060000
C        -0.28407245810000   -2.90396532260000    0.14092164020000
O         2.15636057760000   -0.23944645320000   -0.01514562780000
H         5.44571831480000    1.95241537650000    0.00131694030000
H         4.70242756080000    0.27431291920000   -0.01837387150000
H         3.19926795890000    2.94694185360000    0.01796393230000
H         0.45198224830000    2.53658185150000    0.01199831420000
H        -3.77899259320000   -1.28563938340000   -1.34288091310000
H        -3.79715071920000    0.45679831420000   -0.92760744630000
H        -3.84591409270000   -1.83101784640000    1.10900338670000
H        -5.23606440050000   -0.83916421350000    0.64293879420000
H        -3.86655002710000   -0.10060662960000    1.48294790200000
H         1.77997921860000   -2.61501224540000   -0.03533470920000
H        -1.26907670920000   -2.48303466980000    0.19933317200000
H        -0.20421935150000   -3.97663250000000    0.17780774890000
$end

$rem
BASIS = 6-31G*
GUI = 2
METHOD = B3LYP
PRINT_ORBITALS false
MOLDEN_FORMAT false
--------------------------------------------------------------

             Standard Nuclear Orientation (Angstroms)
    I     Atom           X                Y                Z
 ----------------------------------------------------------------
    1      C       4.7889945949     0.1287927586     0.0405865372
    2      C       3.7513284093     0.9606426131     0.0348662809
    3      C       2.3744946434     0.5390466148     0.0144059780
    4      C       1.2224805786     1.2815328324     0.0038156146
    5      C       0.1400199030     0.3656018306    -0.0266715146
    6      C      -1.2420398182     0.8603024634    -0.0717409930
    7      O      -1.5428224668     1.9871041206     0.2421806175
    8      O      -2.1246916039    -0.0329462852    -0.5411080464
    9      C      -3.4830342099     0.3966612635    -0.6362256397
   10      C      -4.2053422015     0.2727108870     0.6981693004
   11      C       0.7134823375    -0.9028722946    -0.0186360704
   12      C       0.2552275819    -2.2684744737     0.0239999305
   13      C      -0.9919223564    -2.7154153228     0.1344973177
   14      O       2.0572781286    -0.7750339466     0.0040070245
   15      H       5.8019491717     0.4895225871     0.0563441239
   16      H       4.6493764024    -0.9386808981     0.0297443760
   17      H       3.8899927661     2.0323168993     0.0459686322
   18      H       1.1304647121     2.3479407888     0.0086032034
   19      H      -3.9315372925    -0.2525561894    -1.3913154265
   20      H      -3.5019912988     1.4366942226    -0.9780428961
   21      H      -4.1643043999    -0.7521990020     1.0601798944
   22      H      -5.2446962523     0.5641753681     0.5770446392
   23      H      -3.7398170781     0.9259136365     1.4321097368
   24      H       1.0782852200    -2.9719558646    -0.0181363830
   25      H      -1.8347431616    -2.0533641361     0.1810721253
   26      H      -1.1932280278    -3.7719735578     0.1733907595
 ----------------------------------------------------------------

    9    -652.0250507538      6.37e-06  Convergence criterion met
 Total energy in the final basis set =     -652.0250507538

                    Orbital Energies (a.u.)
 --------------------------------------------------------------

 Alpha MOs
 -- Occupied --
-19.2256 -19.1925 -19.1314 -10.3171 -10.2612 -10.2466 -10.2438 -10.2022
-10.2012 -10.2003 -10.1907 -10.1860 -10.1844 -10.1817  -1.1318  -1.1092
 -1.0169  -0.8254  -0.8205  -0.7830  -0.7732  -0.7230  -0.6802  -0.6400
 -0.6109  -0.5936  -0.5742  -0.5510  -0.5110  -0.4900  -0.4813  -0.4780
 -0.4682  -0.4576  -0.4478  -0.4330  -0.4295  -0.4123  -0.4080  -0.3884
 -0.3815  -0.3759  -0.3699  -0.3612  -0.3391  -0.3248  -0.3006  -0.2952
 -0.2780  -0.2704  -0.2033

          Ground-State Mulliken Net Atomic Charges

     Atom                 Charge (a.u.)
  ----------------------------------------
      1 C                    -0.354385
      2 C                    -0.106635
      3 C                     0.335756
      4 C                    -0.223478
      5 C                     0.000812
      6 C                     0.568058
      7 O                    -0.489458
      8 O                    -0.463227
      9 C                    -0.047433
     10 C                    -0.467893
     11 C                     0.316868
     12 C                    -0.138776
     13 C                    -0.342298
     14 O                    -0.484270
     15 H                     0.147428
     16 H                     0.156775
     17 H                     0.144754
     18 H                     0.163621
     19 H                     0.152662
     20 H                     0.171764
     21 H                     0.156069
     22 H                     0.153130
     23 H                     0.181606
     24 H                     0.146766
     25 H                     0.176350
     26 H                     0.145436
  ----------------------------------------
  Sum of atomic charges =     0.000000

                    Cartesian Multipole Moments
 -----------------------------------------------------------------
    Charge (ESU x 10^10)
                 0.0000
    Dipole Moment (Debye)
         X      -0.4631      Y      -1.3069      Z      -0.4351
       Tot       1.4532
    Quadrupole Moments (Debye-Ang)
        XX     -67.6831     XY       4.7867     YY     -79.8843
        XZ       1.3921     YZ      -1.6421     ZZ     -83.7353

 Total job time:  40.54s(wall), 40.00s(cpu)
        *  Thank you very much for using Q-Chem.  Have a nice day.  *
