 Q-Chem 5.2, Q-Chem, Inc., Pleasanton, CA (2019)
 Q-Chem 5.2.1 for Intel X86 EM64T Linux

User input:
--------------------------------------------------------------
$molecule
0 1
C         3.34710375200000    2.60531055350000    0.01065913270000
C         3.37434031140000    1.27905735410000   -0.03477596410000
C         2.22674280110000    0.37827741010000   -0.01688432940000
C         2.45126715330000   -0.99980426740000    0.01028673490000
C         1.39185657050000   -1.88714597700000    0.03091106760000
C         0.08797212020000   -1.42818574310000    0.02265354370000
C        -0.16655277890000   -0.05531670980000   -0.00758387970000
C        -1.50804938160000    0.50931400780000   -0.02043528370000
C        -2.67137657650000   -0.12337135730000   -0.00027349250000
F        -2.89498158470000   -1.43153676500000    0.03630323790000
F        -3.84331837990000    0.51128637380000   -0.01467156730000
C         0.90997932030000    0.82928873670000   -0.02731335010000
H         4.25526583530000    3.18293667600000   -0.00561141100000
H         2.43332797140000    3.17135862620000    0.06849781950000
H         4.33342937420000    0.77781357240000   -0.08452228910000
H         3.46537044030000   -1.37288646690000    0.01709543750000
H         1.58208007000000   -2.95000709270000    0.05302136030000
H        -0.72319125130000   -2.13676396700000    0.03825821440000
H        -1.57662029310000    1.58747929100000   -0.04941716370000
H         0.70959415930000    1.88930566970000   -0.05472147960000
$end

$rem
BASIS = 6-31G*
GUI = 2
METHOD = B3LYP
PRINT_ORBITALS false
MOLDEN_FORMAT false
--------------------------------------------------------------

             Standard Nuclear Orientation (Angstroms)
    I     Atom           X                Y                Z
 ----------------------------------------------------------------
    1      C       3.7046689061    -1.8197502263    -0.0388179151
    2      C       3.4453728398    -0.5194267019     0.0218286754
    3      C       2.1305028375     0.1128354353     0.0136965915
    4      C       2.0525325743     1.5071282074     0.0024331507
    5      C       0.8266669739     2.1453166843    -0.0085419777
    6      C      -0.3475578348     1.4159211106    -0.0061885774
    7      C      -0.3000001970     0.0202140310     0.0081859684
    8      C      -1.4881571988    -0.8205215950     0.0139032363
    9      C      -2.7605816356    -0.4533953195     0.0004205805
   10      F      -3.2610805549     0.7761021909    -0.0212703023
   11      F      -3.7680698761    -1.3259604696     0.0069654249
   12      C       0.9419922915    -0.6116005383     0.0183061006
   13      H       4.7160513059    -2.1880961671    -0.0287210408
   14      H       2.9343345811    -2.5688372309    -0.1035913586
   15      H       4.2739121056     0.1762477082     0.0777898764
   16      H       2.9623148872     2.0901669515     0.0004012384
   17      H       0.7831844813     3.2243719116    -0.0183748463
   18      H      -1.2924597367     1.9330389752    -0.0140708510
   19      H      -1.3225705324    -1.8883643604     0.0304918340
   20      H       0.9749494453    -1.6901298051     0.0334640443
 ----------------------------------------------------------------

    9    -585.5157108773      5.11e-06  Convergence criterion met
 Total energy in the final basis set =     -585.5157108773

                    Orbital Energies (a.u.)
 --------------------------------------------------------------

 Alpha MOs
 -- Occupied --
-24.7450 -24.7342 -10.3572 -10.2072 -10.2033 -10.1975 -10.1922 -10.1900
-10.1895 -10.1881 -10.1879 -10.1820  -1.2858  -1.2247  -0.8716  -0.8153
 -0.7863  -0.7432  -0.7276  -0.6461  -0.6319  -0.6051  -0.5726  -0.5713
 -0.5194  -0.5189  -0.5028  -0.4822  -0.4510  -0.4491  -0.4412  -0.4364
 -0.4252  -0.4143  -0.4029  -0.3854  -0.3731  -0.3469  -0.3447  -0.3190
 -0.2868  -0.2329  -0.2196

          Ground-State Mulliken Net Atomic Charges

     Atom                 Charge (a.u.)
  ----------------------------------------
      1 C                    -0.351093
      2 C                    -0.114401
      3 C                     0.178780
      4 C                    -0.194343
      5 C                    -0.129271
      6 C                    -0.192879
      7 C                     0.197301
      8 C                    -0.294023
      9 C                     0.541816
     10 F                    -0.234123
     11 F                    -0.248871
     12 C                    -0.258915
     13 H                     0.145504
     14 H                     0.142883
     15 H                     0.127895
     16 H                     0.127993
     17 H                     0.131732
     18 H                     0.139057
     19 H                     0.159463
     20 H                     0.125493
  ----------------------------------------
  Sum of atomic charges =     0.000000

                    Cartesian Multipole Moments
 -----------------------------------------------------------------
    Charge (ESU x 10^10)
                 0.0000
    Dipole Moment (Debye)
         X       1.0246      Y      -0.0548      Z       0.0085
       Tot       1.0261
    Quadrupole Moments (Debye-Ang)
        XX     -66.8022     XY      -0.0006     YY     -61.2445
        XZ       0.0719     YZ       0.0619     ZZ     -70.8630

 Total job time:  23.18s(wall), 23.10s(cpu)
        *  Thank you very much for using Q-Chem.  Have a nice day.  *
