 Q-Chem 5.4, Q-Chem, Inc., Pleasanton, CA (2021)
 Q-Chem 5.4.2 for Intel X86 EM64T Linux

User input:
--------------------------------------------------------------
$molecule
0 1
C           -4.48202072490000        0.41311981370000        0.19920335140000
C           -3.34060672980000        0.69202799880000       -0.41144766590000
C           -2.07602997840000       -0.00391719480000       -0.13950642320000
C           -2.09869723520000       -1.39296198910000       -0.02290405120000
C           -0.93685380000000       -2.10566120220000        0.19612515410000
C            0.26793323260000       -1.43846252620000        0.29778538700000
C            0.31706221410000       -0.04967646920000        0.19159787750000
C            1.59071097910000        0.65422333470000        0.32573121150000
C            2.78449318260000        0.18537688540000        0.00286609700000
F            3.07864358200000       -0.99178617990000       -0.53773505470000
F            3.91223538080000        0.87944379440000        0.16382417730000
C           -0.86257476600000        0.68125915560000       -0.01964259170000
C           -0.80575224450000        2.17976064290000       -0.09491965070000
H           -5.39696811270000        0.92603573610000       -0.04380920810000
H           -4.54154049110000       -0.32684650350000        0.98019945520000
H           -3.31646003280000        1.45482237800000       -1.17920979960000
H           -3.04054990930000       -1.91060364560000       -0.12593814970000
H           -0.96744340300000       -3.18116384810000        0.28382745900000
H            1.17312327860000       -1.99572130740000        0.47800512670000
H            1.58065735940000        1.65876866290000        0.71951920740000
H           -0.13734276770000        2.49983166740000       -0.89330698250000
H           -0.43386360030000        2.59049405450000        0.84383901570000
H           -1.78777260290000        2.60554384220000       -0.27012057860000
$end

$rem
BASIS = 6-31G*
GUI = 2
METHOD = B3LYP
PRINT_ORBITALS false
MOLDEN_FORMAT false
$end
--------------------------------------------------------------

             Standard Nuclear Orientation (Angstroms)
    I     Atom           X                Y                Z
 ----------------------------------------------------------------
    1      C      -4.3594289779     0.3454125067     0.2093211021
    2      C      -3.2216766530     0.6493664372    -0.3961886038
    3      C      -1.9503850787    -0.0414706607    -0.1431906798
    4      C      -1.9603076393    -1.4330808357    -0.0602568401
    5      C      -0.7916888654    -2.1403158243     0.1396005120
    6      C       0.4072091140    -1.4648821160     0.2555039665
    7      C       0.4436133164    -0.0735430202     0.1829339265
    8      C       1.7110972460     0.6384171016     0.3320819570
    9      C       2.9084798781     0.1883698337    -0.0039345809
   10      F       3.2122694380    -0.9726373629    -0.5733738995
   11      F       4.0302003161     0.8885279564     0.1720219635
   12      C      -0.7429488230     0.6515723111    -0.0086668924
   13      C      -0.6997859404     2.1519110860    -0.0476882757
   14      H      -5.2794024344     0.8557500323    -0.0197444328
   15      H      -4.4108665135    -0.4137648838     0.9722441238
   16      H      -3.2057929186     1.4307230264    -1.1452724505
   17      H      -2.8976344170    -1.9565908870    -0.1743230826
   18      H      -0.8124146500    -3.2178604740     0.2012554321
   19      H       1.3177130198    -2.0181149980     0.4207357402
   20      H       1.6926864569     1.6329959794     0.7501193670
   21      H      -0.0357266797     2.4972742818    -0.8391354201
   22      H      -0.3299336164     2.5431373053     0.9001631032
   23      H      -1.6859214954     2.5728943588    -0.2109685051
 ----------------------------------------------------------------

    9    -624.8248329589      4.83e-06  Convergence criterion met
 Total energy in the final basis set =     -624.8248329589

                    Orbital Energies (a.u.)
 --------------------------------------------------------------

 Alpha MOs
 -- Occupied --
-24.7402 -24.7319 -10.3544 -10.2001 -10.1994 -10.1967 -10.1923 -10.1904
-10.1840 -10.1831 -10.1831 -10.1824 -10.1803  -1.2819  -1.2212  -0.8717
 -0.8136  -0.7863  -0.7664  -0.7220  -0.6885  -0.6435  -0.6204  -0.5894
 -0.5671  -0.5639  -0.5173  -0.5154  -0.4957  -0.4783  -0.4593  -0.4386
 -0.4377  -0.4334  -0.4299  -0.4169  -0.4118  -0.4045  -0.3940  -0.3740
 -0.3595  -0.3421  -0.3340  -0.2992  -0.2753  -0.2312  -0.2202

          Ground-State Mulliken Net Atomic Charges

     Atom                 Charge (a.u.)
  ----------------------------------------
      1 C                    -0.333331
      2 C                    -0.144380
      3 C                     0.090193
      4 C                    -0.173431
      5 C                    -0.134257
      6 C                    -0.182749
      7 C                     0.123530
      8 C                    -0.313699
      9 C                     0.552116
     10 F                    -0.235795
     11 F                    -0.250071
     12 C                     0.064087
     13 C                    -0.535434
     14 H                     0.141978
     15 H                     0.145876
     16 H                     0.140641
     17 H                     0.129025
     18 H                     0.128507
     19 H                     0.133372
     20 H                     0.161403
     21 H                     0.166763
     22 H                     0.165412
     23 H                     0.160245
  ----------------------------------------
  Sum of atomic charges =     0.000000

                    Cartesian Multipole Moments
 -----------------------------------------------------------------
    Charge (ESU x 10^10)
                 0.0000
    Dipole Moment (Debye)
         X      -1.0723      Y       0.5794      Z       0.2028
       Tot       1.2355
    Quadrupole Moments (Debye-Ang)
        XX     -74.4745     XY      -0.2721     YY     -68.9254
        XZ       0.9858     YZ      -1.3910     ZZ     -75.4536

 Total job time:  60.43s(wall), 51.44s(cpu)
        *  Thank you very much for using Q-Chem.  Have a nice day.  *
