 Q-Chem 5.4, Q-Chem, Inc., Pleasanton, CA (2021)
 Q-Chem 5.4.2 for Intel X86 EM64T Linux

User input:
--------------------------------------------------------------
$molecule
0 1
C           -4.18617393440000        0.74832295500000        0.15253541880000
C           -2.92794561760000        0.90686810440000       -0.23200400930000
C           -1.88243151020000       -0.10991737440000       -0.08538822980000
C           -2.19637358350000       -1.45112428700000       -0.28247247380000
C           -1.22723675430000       -2.42934886020000       -0.16343376820000
C            0.07251469440000       -2.06877325730000        0.12646156100000
C            0.41678988650000       -0.72775994330000        0.29792343450000
C            1.83251665970000       -0.44195290290000        0.55878955390000
C            2.56639977060000        0.46833486150000       -0.05514164450000
F            2.17142775330000        1.30783490770000       -1.00533423720000
F            3.86270342690000        0.66540641190000        0.18733613470000
C           -0.56637247250000        0.26282561780000        0.22666133430000
C           -0.26066363060000        1.69591026220000        0.54439157080000
H           -4.92424728410000        1.51872553110000        0.00752147050000
H           -4.52429118150000       -0.14890433000000        0.64413260660000
H           -2.62238679350000        1.83539279040000       -0.69597629830000
H           -3.20867496420000       -1.72232115020000       -0.54121100500000
H           -1.48276637300000       -3.46866506930000       -0.30537076120000
H            0.84139933420000       -2.82336857950000        0.20402570370000
H            2.34716717200000       -1.07937299900000        1.26286330130000
H           -0.10593497330000        2.26903634000000       -0.36993179350000
H            0.63835094950000        1.77860249960000        1.15030026450000
H           -1.08617930420000        2.14404270780000        1.09310640440000
$end

$rem
BASIS = 6-31G*
GUI = 2
METHOD = B3LYP
PRINT_ORBITALS false
MOLDEN_FORMAT false
$end
--------------------------------------------------------------

             Standard Nuclear Orientation (Angstroms)
    I     Atom           X                Y                Z
 ----------------------------------------------------------------
    1      C       3.9694794958     1.2054702643    -0.1685070239
    2      C       2.7022556323     1.2301420359     0.2183787691
    3      C       1.7767172703     0.1000878059     0.0967036959
    4      C       2.2391391043    -1.1933376284     0.3190873739
    5      C       1.3852455236    -2.2759826491     0.2238758466
    6      C       0.0526886959    -2.0689246320    -0.0673752034
    7      C      -0.4397982364    -0.7785621635    -0.2640033081
    8      C      -1.8791757194    -0.6581637628    -0.5242258656
    9      C      -2.7089312919     0.1766559922     0.0746910047
   10      F      -2.4082664212     1.0741664390     1.0061977511
   11      F      -4.0196697447     0.2226169275    -0.1659085372
   12      C       0.4265458820     0.3169615975    -0.2168670936
   13      C      -0.0382347650     1.7001405149    -0.5617395771
   14      H       4.6170627606     2.0563363316    -0.0421571340
   15      H       4.4047599617     0.3418685393    -0.6436184271
   16      H       2.2957681190     2.1279172217     0.6651026097
   17      H       3.2759849685    -1.3443617354     0.5786828755
   18      H       1.7557333001    -3.2771217894     0.3853654989
   19      H      -0.6271332892    -2.9061605840    -0.1264676325
   20      H      -2.3208340322    -1.3632840384    -1.2131617858
   21      H      -0.2541027595     2.2708236663     0.3416559191
   22      H      -0.9421778377     1.6694955380    -1.1651783670
   23      H       0.7307747528     2.2265123033    -1.1229381931
 ----------------------------------------------------------------

    9    -624.8241080729      5.23e-06  Convergence criterion met
 Total energy in the final basis set =     -624.8241080729

                    Orbital Energies (a.u.)
 --------------------------------------------------------------

 Alpha MOs
 -- Occupied --
-24.7394 -24.7324 -10.3542 -10.2001 -10.1995 -10.1955 -10.1911 -10.1893
-10.1862 -10.1845 -10.1837 -10.1808 -10.1761  -1.2817  -1.2214  -0.8717
 -0.8129  -0.7875  -0.7621  -0.7248  -0.6864  -0.6409  -0.6212  -0.5890
 -0.5739  -0.5538  -0.5207  -0.5152  -0.4994  -0.4744  -0.4529  -0.4456
 -0.4396  -0.4322  -0.4209  -0.4199  -0.4112  -0.4046  -0.3888  -0.3742
 -0.3583  -0.3421  -0.3334  -0.2943  -0.2738  -0.2322  -0.2234

          Ground-State Mulliken Net Atomic Charges

     Atom                 Charge (a.u.)
  ----------------------------------------
      1 C                    -0.336753
      2 C                    -0.132148
      3 C                     0.094908
      4 C                    -0.176784
      5 C                    -0.133253
      6 C                    -0.170482
      7 C                     0.110345
      8 C                    -0.348456
      9 C                     0.570282
     10 F                    -0.235620
     11 F                    -0.248926
     12 C                     0.080551
     13 C                    -0.540242
     14 H                     0.142968
     15 H                     0.145159
     16 H                     0.138763
     17 H                     0.129003
     18 H                     0.128103
     19 H                     0.126341
     20 H                     0.168007
     21 H                     0.167842
     22 H                     0.156895
     23 H                     0.163497
  ----------------------------------------
  Sum of atomic charges =     0.000000

                    Cartesian Multipole Moments
 -----------------------------------------------------------------
    Charge (ESU x 10^10)
                 0.0000
    Dipole Moment (Debye)
         X       0.7491      Y      -0.4348      Z      -0.4046
       Tot       0.9560
    Quadrupole Moments (Debye-Ang)
        XX     -73.0968     XY       1.9190     YY     -68.3918
        XZ       1.4828     YZ       0.5073     ZZ     -76.0234

 Total job time:  52.10s(wall), 50.45s(cpu)
        *  Thank you very much for using Q-Chem.  Have a nice day.  *
