 Q-Chem 5.2, Q-Chem, Inc., Pleasanton, CA (2019)
 Q-Chem 5.2.1 for Intel X86 EM64T Linux

User input:
--------------------------------------------------------------
$molecule
0 1
C        -1.39292608750000    1.23962750560000    2.13928519540000
C        -2.24994734410000    0.54689996400000    1.40322132090000
C        -1.90745910930000   -0.39365917240000    0.33616506780000
C        -2.69870534250000   -1.53345907770000    0.19417547460000
C        -2.40761616230000   -2.50112417840000   -0.74645948370000
C        -1.31767067530000   -2.33732935820000   -1.58516602710000
C        -0.53609038870000   -1.20323045890000   -1.47493867330000
C        -0.81393318980000   -0.22563586920000   -0.52417744180000
C         0.00874234700000    0.99920506380000   -0.52817568230000
C        -0.61158041550000    2.22235941720000   -0.76984032330000
C         0.12232241520000    3.38599270730000   -0.88772380690000
C         1.50385270000000    3.34306843130000   -0.78309089620000
C         2.13523914470000    2.13696299250000   -0.55552814830000
C         1.40403939020000    0.95785925450000   -0.41088002030000
C         2.15215833990000   -0.27284825850000   -0.14489721090000
C         1.83066249750000   -1.23607446920000    0.70088979840000
F         0.77534679360000   -1.29599668900000    1.50094196980000
F         2.58518555450000   -2.31834033140000    0.89689186070000
H        -1.73004547290000    1.88438348600000    2.93330260300000
H        -0.32871301950000    1.17807303890000    1.99520305550000
H        -3.30946844750000    0.60824526510000    1.62403417650000
H        -3.54607534760000   -1.66402170690000    0.85236215710000
H        -3.02936292740000   -3.38033305720000   -0.82855048450000
H        -1.08249609310000   -3.08507965770000   -2.32792626190000
H         0.29940290730000   -1.05739326590000   -2.14574920050000
H        -1.68619897460000    2.24635289060000   -0.87452101350000
H        -0.37919165990000    4.32378470510000   -1.07398310540000
H         2.08636200450000    4.24641354380000   -0.88416826730000
H         3.21186152050000    2.09899440260000   -0.47205431940000
H         3.09921654450000   -0.38797826660000   -0.65260497420000
$end

$rem
BASIS = 6-31G*
GUI = 2
METHOD = B3LYP
PRINT_ORBITALS false
MOLDEN_FORMAT false
--------------------------------------------------------------

             Standard Nuclear Orientation (Angstroms)
    I     Atom           X                Y                Z
 ----------------------------------------------------------------
    1      C      -0.1355385807    -1.6715255898     2.2595913602
    2      C       0.8548113133    -2.0652557124     1.4719806781
    3      C       1.3900146463    -1.3302631735     0.3257249966
    4      C       2.7631198481    -1.4001097960     0.0910357885
    5      C       3.3574056329    -0.6876561150    -0.9312836043
    6      C       2.5787621663     0.1034562816    -1.7595915794
    7      C       1.2134174106     0.1665346629    -1.5569763208
    8      C       0.6043925821    -0.5394840438    -0.5237962458
    9      C      -0.8672899190    -0.4957975280    -0.4274196908
   10      C      -1.5830372110    -1.6831170787    -0.5588989636
   11      C      -2.9636369402    -1.6877562489    -0.5806975931
   12      C      -3.6583908529    -0.4918069279    -0.4888352513
   13      C      -2.9638973253     0.6950722882    -0.3700057827
   14      C      -1.5698496217     0.7115986398    -0.3228924446
   15      C      -0.9143342332     2.0122044486    -0.1686397110
   16      C       0.1276568009     2.2962018757     0.5930164589
   17      F       0.7976066470     1.4771276614     1.3915463703
   18      F       0.6498377365     3.5196741435     0.6902991847
   19      H      -0.4433918838    -2.2586604124     3.1083094770
   20      H      -0.6623294234    -0.7466479705     2.1040572263
   21      H       1.3846028139    -2.9821176099     1.7039111815
   22      H       3.3716109859    -2.0131255318     0.7408376642
   23      H       4.4245782730    -0.7497632874    -1.0849113374
   24      H       3.0314128993     0.6618342050    -2.5654772843
   25      H       0.5975275495     0.7607391735    -2.2179642000
   26      H      -1.0363291505    -2.6095805951    -0.6543684899
   27      H      -3.4986220383    -2.6200267660    -0.6823113352
   28      H      -4.7376579065    -0.4851052440    -0.5153650758
   29      H      -3.5013766810     1.6295742242    -0.2968804938
   30      H      -1.3586591866     2.8478876740    -0.6903198976
 ----------------------------------------------------------------

    9    -816.5550973751      4.16e-06  Convergence criterion met
 Total energy in the final basis set =     -816.5550973751

                    Orbital Energies (a.u.)
 --------------------------------------------------------------

 Alpha MOs
 -- Occupied --
-24.7361 -24.7287 -10.3513 -10.2028 -10.1973 -10.1948 -10.1923 -10.1917
-10.1880 -10.1869 -10.1857 -10.1845 -10.1844 -10.1842 -10.1837 -10.1831
-10.1830 -10.1736  -1.2785  -1.2178  -0.8788  -0.8539  -0.8036  -0.7898
 -0.7733  -0.7386  -0.7288  -0.7163  -0.6431  -0.6287  -0.6107  -0.6018
 -0.5864  -0.5661  -0.5577  -0.5290  -0.5130  -0.5065  -0.4903  -0.4734
 -0.4647  -0.4484  -0.4473  -0.4352  -0.4320  -0.4274  -0.4232  -0.4179
 -0.4140  -0.4051  -0.3749  -0.3713  -0.3649  -0.3609  -0.3475  -0.3374
 -0.3315  -0.2925  -0.2819  -0.2637  -0.2437  -0.2226  -0.2135

          Ground-State Mulliken Net Atomic Charges

     Atom                 Charge (a.u.)
  ----------------------------------------
      1 C                    -0.325355
      2 C                    -0.147491
      3 C                     0.146677
      4 C                    -0.199208
      5 C                    -0.120029
      6 C                    -0.133208
      7 C                    -0.158318
      8 C                    -0.001828
      9 C                    -0.004802
     10 C                    -0.138434
     11 C                    -0.133978
     12 C                    -0.124346
     13 C                    -0.192201
     14 C                     0.151027
     15 C                    -0.350632
     16 C                     0.579232
     17 F                    -0.227544
     18 F                    -0.250689
     19 H                     0.139223
     20 H                     0.157264
     21 H                     0.129222
     22 H                     0.126830
     23 H                     0.127639
     24 H                     0.128312
     25 H                     0.134731
     26 H                     0.136948
     27 H                     0.129071
     28 H                     0.128743
     29 H                     0.128234
     30 H                     0.164909
  ----------------------------------------
  Sum of atomic charges =     0.000000

                    Cartesian Multipole Moments
 -----------------------------------------------------------------
    Charge (ESU x 10^10)
                 0.0000
    Dipole Moment (Debye)
         X      -0.7476      Y      -0.4737      Z      -0.5819
       Tot       1.0592
    Quadrupole Moments (Debye-Ang)
        XX     -92.2595     XY      -2.8896     YY     -97.8177
        XZ      -1.2659     YZ      -4.3102     ZZ    -101.4782

 Total job time:  81.37s(wall), 80.90s(cpu)
        *  Thank you very much for using Q-Chem.  Have a nice day.  *
