 Q-Chem 5.2, Q-Chem, Inc., Pleasanton, CA (2019)
 Q-Chem 5.2.1 for Intel X86 EM64T Linux

User input:
--------------------------------------------------------------
$molecule
0 1
C        -3.00558476450000   -3.05967765650000    0.12184882430000
C        -1.87770186760000   -2.51036689760000    0.56395266510000
C        -1.50983980200000   -1.13229669220000    0.39530070220000
C        -0.36348426680000   -0.52346509130000    0.83616839400000
C        -0.25860449870000    0.84420123070000    0.51513095100000
C         0.94762869330000    1.64151630160000    0.90035787070000
C         1.97074940440000    1.71411064700000   -0.24366265200000
C         2.52139895620000    0.34858828090000   -0.65585267150000
C         3.45924726180000   -0.26505382940000    0.38193763870000
C         3.99693857630000   -1.63313459980000   -0.04080545530000
C         2.94393996380000   -2.73373489580000    0.02681331010000
C        -1.35575314090000    1.29931805510000   -0.18720844890000
C        -1.73712729270000    2.58603769200000   -0.70850609960000
C        -1.01570543990000    3.70176019640000   -0.79528093080000
S        -2.51168948730000    0.01324048840000   -0.43551404910000
H        -3.22781362110000   -4.10035995390000    0.27728113370000
H        -3.74045825780000   -2.47837349310000   -0.41044911570000
H        -1.14841794060000   -3.10833935900000    1.09660623760000
H         0.39298556040000   -1.05363675090000    1.38875230190000
H         1.41172031720000    1.17592133840000    1.77125792570000
H         0.64983582470000    2.65156227380000    1.18663949260000
H         2.79680419910000    2.36095589720000    0.06233281600000
H         1.49119627450000    2.16771036120000   -1.11373583350000
H         3.07178285170000    0.46504007210000   -1.59299955940000
H         1.68479088500000   -0.32428840180000   -0.84807350620000
H         2.94401286030000   -0.37246866930000    1.33805649190000
H         4.30097479590000    0.41513075840000    0.53685623520000
H         4.82747600930000   -1.90323199370000    0.61614949270000
H         4.38937139290000   -1.56745048320000   -1.05812283640000
H         2.55587698630000   -2.82630310210000    1.03946786700000
H         3.37738710630000   -3.68958548720000   -0.25888323510000
H         2.11316033980000   -2.52563950730000   -0.64266513190000
H        -2.75574489600000    2.60690179870000   -1.07928500130000
H         0.00747764850000    3.77778400240000   -0.47934239660000
H        -1.44992260190000    4.59697233600000   -1.20672689650000
$end

$rem
BASIS = 6-31G*
GUI = 2
METHOD = B3LYP
PRINT_ORBITALS false
MOLDEN_FORMAT false
--------------------------------------------------------------

             Standard Nuclear Orientation (Angstroms)
    I     Atom           X                Y                Z
 ----------------------------------------------------------------
    1      C       2.4303735325     3.6031291698    -0.1635323046
    2      C       1.4128608418     2.8899033528     0.3111199927
    3      C       1.3338049980     1.4558742631     0.2987015309
    4      C       0.3100464483     0.6808637681     0.7787519633
    5      C       0.4939793832    -0.7068657085     0.6207913693
    6      C      -0.5483305702    -1.6835888476     1.0665620347
    7      C      -1.4785269397    -2.0890781353    -0.0871892542
    8      C      -2.2672179009    -0.9180114078    -0.6739908909
    9      C      -3.3584895754    -0.3947535366     0.2579169074
   10      C      -4.1344749610     0.7802446837    -0.3393221830
   11      C      -3.3247600089     2.0716471896    -0.3759370834
   12      C       1.6931104894    -1.0061702291     0.0070744202
   13      C       2.3470363315    -2.2391444106    -0.3464797754
   14      C       1.8658696491    -3.4803138661    -0.3183182051
   15      S       2.5826508824     0.4512058722    -0.3625372735
   16      H       2.4342730981     4.6779639151    -0.1277611543
   17      H       3.2913400176     3.1267606845    -0.6029688258
   18      H       0.5540506860     3.3836594226     0.7490651935
   19      H      -0.5629565795     1.1053820835     1.2438621401
   20      H      -1.1381996791    -1.2271674612     1.8630295880
   21      H      -0.0712324008    -2.5740365742     1.4792493357
   22      H      -2.1744775838    -2.8513410943     0.2719992899
   23      H      -0.8759361491    -2.5306084229    -0.8838614518
   24      H      -2.7362592957    -1.2474030940    -1.6047051481
   25      H      -1.5717588973    -0.1155711894    -0.9230921040
   26      H      -2.9230160856    -0.0791454214     1.2076126772
   27      H      -4.0556546614    -1.2095084944     0.4707344075
   28      H      -5.0337338579     0.9484102853     0.2584976897
   29      H      -4.4549358042     0.5232436030    -1.3515019423
   30      H      -3.0136637674     2.3533990892     0.6282869925
   31      H      -3.9239649308     2.8819861190    -0.7851480013
   32      H      -2.4369070766     1.9624539543    -0.9935889810
   33      H       3.3668386404    -2.0947891062    -0.6850930113
   34      H       0.8635018791    -3.7259860974    -0.0226758241
   35      H       2.4885880243    -4.3094138693    -0.6082356265
 ----------------------------------------------------------------

    9    -943.6820523824      3.21e-06  Convergence criterion met
 Total energy in the final basis set =     -943.6820523824

                    Orbital Energies (a.u.)
 --------------------------------------------------------------

 Alpha MOs
 -- Occupied --
-88.8990 -10.2158 -10.2150 -10.1980 -10.1972 -10.1922 -10.1863 -10.1852
-10.1810 -10.1803 -10.1784 -10.1751 -10.1736 -10.1711 -10.1685  -7.9611
 -5.9250  -5.9216  -5.9180  -0.8894  -0.8160  -0.8032  -0.7814  -0.7683
 -0.7364  -0.7126  -0.6880  -0.6491  -0.6225  -0.5939  -0.5890  -0.5624
 -0.5342  -0.5131  -0.4932  -0.4694  -0.4608  -0.4527  -0.4480  -0.4383
 -0.4292  -0.4156  -0.4027  -0.3976  -0.3893  -0.3799  -0.3743  -0.3658
 -0.3597  -0.3488  -0.3401  -0.3388  -0.3276  -0.3218  -0.3164  -0.3137
 -0.3054  -0.2688  -0.2448  -0.1971

          Ground-State Mulliken Net Atomic Charges

     Atom                 Charge (a.u.)
  ----------------------------------------
      1 C                    -0.374242
      2 C                    -0.055872
      3 C                    -0.137736
      4 C                    -0.183848
      5 C                     0.179377
      6 C                    -0.360037
      7 C                    -0.259389
      8 C                    -0.266626
      9 C                    -0.252916
     10 C                    -0.249494
     11 C                    -0.449516
     12 C                    -0.192961
     13 C                    -0.088487
     14 C                    -0.355448
     15 S                     0.231040
     16 H                     0.146501
     17 H                     0.155684
     18 H                     0.138214
     19 H                     0.139998
     20 H                     0.146163
     21 H                     0.149936
     22 H                     0.128959
     23 H                     0.145214
     24 H                     0.129703
     25 H                     0.152792
     26 H                     0.125711
     27 H                     0.127592
     28 H                     0.129415
     29 H                     0.131722
     30 H                     0.137237
     31 H                     0.143456
     32 H                     0.154580
     33 H                     0.136315
     34 H                     0.152525
     35 H                     0.144440
  ----------------------------------------
  Sum of atomic charges =     0.000000

                    Cartesian Multipole Moments
 -----------------------------------------------------------------
    Charge (ESU x 10^10)
                -0.0000
    Dipole Moment (Debye)
         X      -0.9867      Y      -0.1600      Z       0.2728
       Tot       1.0362
    Quadrupole Moments (Debye-Ang)
        XX     -98.5167     XY      -0.5041     YY     -93.6172
        XZ      -2.8414     YZ       0.9782     ZZ    -102.2157

 Total job time:  62.95s(wall), 61.18s(cpu)
        *  Thank you very much for using Q-Chem.  Have a nice day.  *
