 Q-Chem 5.2, Q-Chem, Inc., Pleasanton, CA (2019)
 Q-Chem 5.2.1 for Intel X86 EM64T Linux

User input:
--------------------------------------------------------------
$molecule
0 1
C        -1.97100216230000    1.40933031530000    2.00457551010000
C        -2.80104613640000    0.77053485750000    1.19231699440000
C        -2.43551277860000   -0.27263831970000    0.23325540690000
C        -3.33032663140000   -1.32499654860000    0.03805277220000
C        -3.03189296170000   -2.37729961940000   -0.80484276690000
C        -1.82622185050000   -2.39081400710000   -1.48671199930000
C        -0.93752241670000   -1.34493140920000   -1.32358930000000
C        -1.22493620010000   -0.28067249030000   -0.47348669300000
C        -0.27373789330000    0.84788045340000   -0.41874868230000
C        -0.68870635510000    2.09770629810000   -0.86379321960000
C         0.18731807790000    3.16573821880000   -0.89659883450000
C         1.49799435530000    2.99313686570000   -0.48100392740000
C         1.92664953430000    1.75805145960000   -0.03596678760000
C         1.05525251930000    0.66883981870000   -0.00151635160000
C         1.46352202490000   -0.63416277720000    0.50872214380000
C         2.69506435350000   -1.10493982550000    0.62397332280000
F         3.83316741060000   -0.51125006870000    0.27880891670000
F         2.97279348970000   -2.31309835880000    1.11452424990000
H        -2.32909585350000    2.14362782460000    2.70604789790000
H        -0.91121421180000    1.22159284700000    2.01330644720000
H        -3.86461266490000    0.96814078740000    1.25805280280000
H        -4.26841066000000   -1.31762493520000    0.57505027420000
H        -3.73793718510000   -3.18430995610000   -0.93266725340000
H        -1.58331901740000   -3.20746906430000   -2.14982247460000
H        -0.00708464740000   -1.33579198730000   -1.87365132810000
H        -1.71063625100000    2.22201767220000   -1.19097243700000
H        -0.14962416900000    4.12997139610000   -1.24643829090000
H         2.18707916390000    3.82397040330000   -0.50011067320000
H         2.94430960470000    1.64178867260000    0.30047296840000
H         0.67683305780000   -1.30657514190000    0.81976480510000
$end

$rem
BASIS = 6-31G*
GUI = 2
METHOD = B3LYP
PRINT_ORBITALS false
MOLDEN_FORMAT false
--------------------------------------------------------------

             Standard Nuclear Orientation (Angstroms)
    I     Atom           X                Y                Z
 ----------------------------------------------------------------
    1      C       1.4795123836    -1.6774507844     2.1262501839
    2      C       2.4638211714    -1.1864270383     1.3867717033
    3      C       2.3518688575    -0.0953195961     0.4179707585
    4      C       3.4226952301     0.7916320098     0.3043861192
    5      C       3.3694691832     1.8802867269    -0.5434789601
    6      C       2.2380590961     2.0975030737    -1.3125689357
    7      C       1.1767484598     1.2159482733    -1.2304289689
    8      C       1.2165932561     0.1173539638    -0.3763615786
    9      C       0.0881535245    -0.8350238130    -0.4080878778
   10      C       0.3199116722    -2.1362744713    -0.8386259037
   11      C      -0.7178811362    -3.0415336778    -0.9512272149
   12      C      -2.0085749823    -2.6512942797    -0.6315316318
   13      C      -2.2562588408    -1.3622694100    -0.2022218716
   14      C      -1.2195850772    -0.4353559688    -0.0880265598
   15      C      -1.4407531549     0.9170971726     0.4087613808
   16      C      -2.5809872290     1.5883359795     0.4390118545
   17      F      -3.7732479724     1.1951889269     0.0021660261
   18      F      -2.6882703092     2.8253481714     0.9245135583
   19      H       1.6553991180    -2.4624937908     2.8419727344
   20      H       0.4686475195    -1.3139842343     2.0590461674
   21      H       3.4711288017    -1.5603571499     1.5283720929
   22      H       4.3030397865     0.6257145903     0.9092722031
   23      H       4.2085023783     2.5570826526    -0.6073052938
   24      H       2.1863223731     2.9442836297    -1.9803479207
   25      H       0.3021347479     1.3643205711    -1.8480070793
   26      H       1.3282204967    -2.4304198201    -1.0908799388
   27      H      -0.5220817206    -4.0482598763    -1.2886117037
   28      H      -2.8238548190    -3.3542315802    -0.7132949961
   29      H      -3.2624194093    -1.0767890195     0.0594699722
   30      H      -0.5781292222     1.4470511822     0.7866425192
 ----------------------------------------------------------------

    9    -816.5595159524      5.13e-06  Convergence criterion met
 Total energy in the final basis set =     -816.5595159524

                    Orbital Energies (a.u.)
 --------------------------------------------------------------

 Alpha MOs
 -- Occupied --
-24.7393 -24.7297 -10.3517 -10.2027 -10.1978 -10.1967 -10.1966 -10.1945
-10.1894 -10.1888 -10.1887 -10.1885 -10.1881 -10.1858 -10.1851 -10.1849
-10.1844 -10.1780  -1.2803  -1.2195  -0.8811  -0.8562  -0.8036  -0.7939
 -0.7767  -0.7368  -0.7324  -0.7193  -0.6436  -0.6331  -0.6132  -0.6054
 -0.5895  -0.5686  -0.5558  -0.5290  -0.5148  -0.5110  -0.4935  -0.4767
 -0.4641  -0.4580  -0.4416  -0.4372  -0.4331  -0.4303  -0.4245  -0.4204
 -0.4157  -0.4038  -0.3794  -0.3747  -0.3687  -0.3639  -0.3468  -0.3399
 -0.3327  -0.2990  -0.2890  -0.2643  -0.2449  -0.2244  -0.2153

          Ground-State Mulliken Net Atomic Charges

     Atom                 Charge (a.u.)
  ----------------------------------------
      1 C                    -0.326851
      2 C                    -0.141879
      3 C                     0.137971
      4 C                    -0.199738
      5 C                    -0.119593
      6 C                    -0.132725
      7 C                    -0.154228
      8 C                    -0.015231
      9 C                    -0.014779
     10 C                    -0.139784
     11 C                    -0.134514
     12 C                    -0.124327
     13 C                    -0.208640
     14 C                     0.161201
     15 C                    -0.315931
     16 C                     0.545811
     17 F                    -0.237780
     18 F                    -0.249727
     19 H                     0.141906
     20 H                     0.159161
     21 H                     0.131476
     22 H                     0.129288
     23 H                     0.130361
     24 H                     0.131573
     25 H                     0.140417
     26 H                     0.134510
     27 H                     0.128143
     28 H                     0.128824
     29 H                     0.136681
     30 H                     0.178406
  ----------------------------------------
  Sum of atomic charges =     0.000000

                    Cartesian Multipole Moments
 -----------------------------------------------------------------
    Charge (ESU x 10^10)
                 0.0000
    Dipole Moment (Debye)
         X       1.2668      Y      -0.6686      Z      -0.1397
       Tot       1.4392
    Quadrupole Moments (Debye-Ang)
        XX     -96.6988     XY       4.2949     YY     -96.6295
        XZ       0.9352     YZ      -2.5662     ZZ    -101.7690

 Total job time:  74.63s(wall), 73.59s(cpu)
        *  Thank you very much for using Q-Chem.  Have a nice day.  *
