 Q-Chem 5.2, Q-Chem, Inc., Pleasanton, CA (2019)
 Q-Chem 5.2.1 for Intel X86 EM64T Linux

User input:
--------------------------------------------------------------
$molecule
0 1
C        -2.83049642730000    2.39749707890000   -0.20406078870000
C        -2.55342432560000    1.16058644150000   -0.59386378170000
C        -1.27265477500000    0.48602333110000   -0.38654297190000
C        -0.08901568170000    1.21904279650000   -0.42470961670000
C         1.15836435750000    0.64131526440000   -0.25639957750000
C         2.38055288500000    1.51771409450000   -0.22772989830000
C         2.79126089570000    1.80512174110000    1.21743797400000
C         1.22756387550000   -0.73581772160000   -0.02896954380000
C         2.49431563280000   -1.46309770870000    0.15902703410000
C         3.45322817420000   -1.55949509010000   -0.74650691780000
C         0.04648525110000   -1.46822868550000    0.03189964420000
C        -1.19979542680000   -0.89422249030000   -0.15533283940000
C        -2.43204529260000   -1.74702464250000   -0.03634208030000
C        -3.15980568110000   -1.48437207910000    1.28308221120000
H        -3.78957043290000    2.84918967260000   -0.39372014330000
H        -2.11991982410000    3.00123220080000    0.33553090340000
H        -3.31723301630000    0.58490544960000   -1.10098787850000
H        -0.14728606330000    2.28153044900000   -0.61388865120000
H         2.16311914620000    2.45958048380000   -0.73536231500000
H         3.21207419920000    1.03788825780000   -0.74241466360000
H         1.97376463960000    2.27791972430000    1.75769019010000
H         3.65473532080000    2.46606176440000    1.24418268200000
H         3.04842118410000    0.87838009920000    1.72549507710000
H         2.58525816700000   -1.99307544610000    1.10073464980000
H         3.37500209440000   -1.08318868250000   -1.71028076380000
H         4.34872647910000   -2.13118979390000   -0.56865910420000
H         0.11122055910000   -2.53213617530000    0.21861066530000
H        -2.14671380060000   -2.80006279210000   -0.08438122820000
H        -3.11181056720000   -1.55047560260000   -0.86877174220000
H        -2.50278589260000   -1.69921914690000    2.12313661450000
H        -4.04260850470000   -2.11504647560000    1.36304374400000
H        -3.46758687150000   -0.44319132680000    1.34749503780000
$end

$rem
BASIS = 6-31G*
GUI = 2
METHOD = B3LYP
PRINT_ORBITALS false
MOLDEN_FORMAT false
--------------------------------------------------------------

             Standard Nuclear Orientation (Angstroms)
    I     Atom           X                Y                Z
 ----------------------------------------------------------------
    1      C      -2.7808084832    -2.4503143843     0.1847288186
    2      C      -2.5195914551    -1.2235974500     0.6155355912
    3      C      -1.2553271588    -0.5176082139     0.4115676102
    4      C      -0.0579334527    -1.2288989639     0.4021064133
    5      C       1.1754263476    -0.6217371804     0.2340811040
    6      C       2.4127980897    -1.4730824823     0.1518375298
    7      C       2.8028774917    -1.6990663092    -1.3098614046
    8      C       1.2152563815     0.7639215995     0.0569608943
    9      C       2.4648839527     1.5216020888    -0.1254949000
   10      C       3.4378606623     1.6027096753     0.7664329767
   11      C       0.0200286170     1.4754914090     0.0436720898
   12      C      -1.2119630730     0.8713698928     0.2307237201
   13      C      -2.4615927909     1.7044003276     0.1647244313
   14      C      -3.2078208988     1.4768601236    -1.1509013056
   15      H      -3.7278906218    -2.9268565611     0.3738393541
   16      H      -2.0689999307    -3.0200918468    -0.3890800593
   17      H      -3.2846784458    -0.6816631035     1.1567714279
   18      H      -0.0932985180    -2.2985636126     0.5525424721
   19      H       2.2217857270    -2.4370160043     0.6276808222
   20      H       3.2444135141    -0.9968663822     0.6697129484
   21      H       1.9846975090    -2.1670498041    -1.8532613338
   22      H       3.6777301251    -2.3420303625    -1.3760064917
   23      H       3.0338735768    -0.7494734446    -1.7873733992
   24      H       2.5292698392     2.0876266930    -1.0482249717
   25      H       3.3855949081     1.0897370196     1.7129922644
   26      H       4.3193947430     2.1975054129     0.5946843570
   27      H       0.0618744279     2.5466064550    -0.1043559439
   28      H      -2.1948370804     2.7601810272     0.2470631828
   29      H      -3.1226806511     1.4643562674     1.0007825549
   30      H      -2.5699430880     1.7350355054    -1.9935062167
   31      H      -4.1033427043     2.0931575713    -1.1921689479
   32      H      -3.4975287094     0.4331043748    -1.2487734354
 ----------------------------------------------------------------

    8    -544.2957811434      6.47e-06  Convergence criterion met
 Total energy in the final basis set =     -544.2957811434

                    Orbital Energies (a.u.)
 --------------------------------------------------------------

 Alpha MOs
 -- Occupied --
-10.1879 -10.1865 -10.1858 -10.1854 -10.1842 -10.1835 -10.1818 -10.1784
-10.1766 -10.1765 -10.1763 -10.1756 -10.1686 -10.1677  -0.8672  -0.8133
 -0.7870  -0.7698  -0.7540  -0.7162  -0.7028  -0.6405  -0.6246  -0.6036
 -0.5847  -0.5633  -0.5319  -0.4935  -0.4796  -0.4690  -0.4447  -0.4403
 -0.4346  -0.4254  -0.4180  -0.4095  -0.4050  -0.3840  -0.3755  -0.3721
 -0.3563  -0.3504  -0.3475  -0.3429  -0.3379  -0.3226  -0.3128  -0.2885
 -0.2620  -0.2341  -0.2129

          Ground-State Mulliken Net Atomic Charges

     Atom                 Charge (a.u.)
  ----------------------------------------
      1 C                    -0.340222
      2 C                    -0.134389
      3 C                     0.119906
      4 C                    -0.262794
      5 C                     0.139968
      6 C                    -0.337574
      7 C                    -0.436824
      8 C                     0.085469
      9 C                    -0.153410
     10 C                    -0.319489
     11 C                    -0.250222
     12 C                     0.130171
     13 C                    -0.345123
     14 C                    -0.441451
     15 H                     0.140569
     16 H                     0.143478
     17 H                     0.133821
     18 H                     0.120654
     19 H                     0.137782
     20 H                     0.147565
     21 H                     0.146727
     22 H                     0.141116
     23 H                     0.151302
     24 H                     0.140636
     25 H                     0.147165
     26 H                     0.141554
     27 H                     0.118379
     28 H                     0.141691
     29 H                     0.143418
     30 H                     0.148839
     31 H                     0.140803
     32 H                     0.160488
  ----------------------------------------
  Sum of atomic charges =     0.000000

                    Cartesian Multipole Moments
 -----------------------------------------------------------------
    Charge (ESU x 10^10)
                 0.0000
    Dipole Moment (Debye)
         X       0.0381      Y       0.2041      Z      -0.0808
       Tot       0.2228
    Quadrupole Moments (Debye-Ang)
        XX     -80.1728     XY       0.5480     YY     -81.4255
        XZ      -0.8107     YZ      -0.8542     ZZ     -87.2550

 Total job time:  44.40s(wall), 44.27s(cpu)
        *  Thank you very much for using Q-Chem.  Have a nice day.  *
