 Q-Chem 5.2, Q-Chem, Inc., Pleasanton, CA (2019)
 Q-Chem 5.2.1 for Intel X86 EM64T Linux

User input:
--------------------------------------------------------------
$molecule
0 1
C        -4.46638465390000   -2.44945223560000   -0.49992766560000
C        -3.29902679790000   -2.34056439040000    0.12824067150000
C        -2.48144400550000   -1.15968914590000    0.15041330010000
C        -1.27856198740000   -0.99606629680000    0.78630561410000
C        -0.69813360170000    0.27804288880000    0.62858632830000
C         0.60618666640000    0.62731647480000    1.27213629970000
C         1.78873617080000    0.22949501750000    0.38014823790000
C         3.12169732580000    0.63703708850000    1.00272219660000
C         4.32438360570000    0.34054412090000    0.10646857600000
C         4.59974904970000   -1.15128933640000   -0.06994383200000
C         5.87215919910000   -1.39407327720000   -0.87262078560000
C        -1.47021521190000    1.10979911620000   -0.15330698240000
C        -1.31067493180000    2.47730387630000   -0.57831773940000
C        -0.18964845630000    3.19252864370000   -0.63125999900000
S        -2.93069656790000    0.30361347640000   -0.66673149300000
H        -5.03701087330000   -3.36082840930000   -0.48161735160000
H        -4.88395349230000   -1.62375955240000   -1.05230537750000
H        -2.89238252600000   -3.17939477840000    0.67958108330000
H        -0.81852950940000   -1.77833939190000    1.36590177250000
H         0.68562317220000    0.09092461430000    2.22104228000000
H         0.64160870510000    1.69650641750000    1.48695967210000
H         1.68158693750000    0.70283256660000   -0.59868822490000
H         1.76165560280000   -0.85043130340000    0.22673891030000
H         3.24774736120000    0.12158813280000    1.95803886960000
H         3.09776043270000    1.71033299560000    1.21073852170000
H         5.20931850780000    0.80753160580000    0.54651499670000
H         4.16528409390000    0.79630799060000   -0.87386519610000
H         3.76044296970000   -1.62438467820000   -0.58220715210000
H         4.69741907880000   -1.61750248440000    0.91338003410000
H         5.79044607830000   -0.94580577480000   -1.86051367710000
H         6.05215400720000   -2.45979588510000   -0.99353994710000
H         6.73150042290000   -0.95599239540000   -0.36921582390000
H        -2.23381361130000    2.93575222170000   -0.91365373360000
H         0.77437177550000    2.80107849570000   -0.36565542590000
H        -0.20982178640000    4.21482733130000   -0.96833872950000
$end

$rem
BASIS = 6-31G*
GUI = 2
METHOD = B3LYP
PRINT_ORBITALS false
MOLDEN_FORMAT false
--------------------------------------------------------------

             Standard Nuclear Orientation (Angstroms)
    I     Atom           X                Y                Z
 ----------------------------------------------------------------
    1      C       4.7085076991     2.2345762368    -0.4499904594
    2      C       3.5188025964     2.1966310574     0.1435904691
    3      C       2.6537976639     1.0505571322     0.1845857838
    4      C       1.4261598310     0.9596631966     0.7868318007
    5      C       0.7997992863    -0.2959552459     0.6594681651
    6      C      -0.5368966839    -0.5679259163     1.2732073630
    7      C      -1.6741779666    -0.1597924039     0.3285665505
    8      C      -3.0411864001    -0.4896508495     0.9226672684
    9      C      -4.2025476116    -0.1820671949    -0.0229887747
   10      C      -4.4117063279     1.3112273084    -0.2655556472
   11      C      -5.6477732251     1.5716415183    -1.1179551937
   12      C       1.5614292003    -1.1877892742    -0.0642980430
   13      C       1.3599085351    -2.5637967364    -0.4413250962
   14      C       0.2130289657    -3.2360283504    -0.5031443490
   15      S       3.0685470631    -0.4605732419    -0.5605826338
   16      H       5.3147146576     3.1228701383    -0.4482162194
   17      H       5.1092219612     1.3718295965    -0.9563002393
   18      H       3.1295626030     3.0720250489     0.6487140386
   19      H       0.9804365644     1.7818061148     1.3206150663
   20      H      -0.6239102374     0.0084699855     2.1976776718
   21      H      -0.6222040248    -1.6255164588     1.5277576287
   22      H      -1.5560083952    -0.6755096079    -0.6273214829
   23      H      -1.5986689378     0.9112866053     0.1346676591
   24      H      -3.1757991657     0.0679185013     1.8528296228
   25      H      -3.0671673126    -1.5539404059     1.1725084240
   26      H      -5.1188646016    -0.5961123251     0.4056809682
   27      H      -4.0317375796    -0.6823358537    -0.9793584031
   28      H      -3.5384747609     1.7302898551    -0.7680701444
   29      H      -4.5208363823     1.8196377363     0.6953967073
   30      H      -5.5537114355     1.0815931134    -2.0846806426
   31      H      -5.7806517102     2.6379548896    -1.2855957435
   32      H      -6.5393222425     1.1879726372    -0.6262873254
   33      H       2.2736776773    -3.0710786937    -0.7285551548
   34      H      -0.7421205816    -2.7968083412    -0.2843084726
   35      H       0.2022375198    -4.2709235348    -0.7997908433
 ----------------------------------------------------------------

    9    -943.6854078171      3.25e-06  Convergence criterion met
 Total energy in the final basis set =     -943.6854078171

                    Orbital Energies (a.u.)
 --------------------------------------------------------------

 Alpha MOs
 -- Occupied --
-88.8977 -10.2149 -10.2134 -10.1975 -10.1965 -10.1911 -10.1857 -10.1847
-10.1807 -10.1803 -10.1789 -10.1759 -10.1749 -10.1739 -10.1679  -7.9597
 -5.9238  -5.9202  -5.9166  -0.8882  -0.8156  -0.8032  -0.7823  -0.7682
 -0.7391  -0.7128  -0.6884  -0.6374  -0.6207  -0.6012  -0.5854  -0.5656
 -0.5346  -0.5175  -0.4926  -0.4715  -0.4620  -0.4563  -0.4456  -0.4283
 -0.4227  -0.4167  -0.4101  -0.3978  -0.3900  -0.3768  -0.3712  -0.3604
 -0.3593  -0.3543  -0.3419  -0.3397  -0.3283  -0.3248  -0.3157  -0.3118
 -0.3096  -0.2680  -0.2430  -0.1970

          Ground-State Mulliken Net Atomic Charges

     Atom                 Charge (a.u.)
  ----------------------------------------
      1 C                    -0.374605
      2 C                    -0.054494
      3 C                    -0.136710
      4 C                    -0.177295
      5 C                     0.183307
      6 C                    -0.355912
      7 C                    -0.260912
      8 C                    -0.255644
      9 C                    -0.246692
     10 C                    -0.252613
     11 C                    -0.440845
     12 C                    -0.197700
     13 C                    -0.092287
     14 C                    -0.351977
     15 S                     0.230077
     16 H                     0.146013
     17 H                     0.155873
     18 H                     0.136637
     19 H                     0.131754
     20 H                     0.141372
     21 H                     0.149587
     22 H                     0.143783
     23 H                     0.141693
     24 H                     0.128357
     25 H                     0.127777
     26 H                     0.126878
     27 H                     0.128026
     28 H                     0.137562
     29 H                     0.129045
     30 H                     0.142876
     31 H                     0.141441
     32 H                     0.141783
     33 H                     0.138295
     34 H                     0.151209
     35 H                     0.144338
  ----------------------------------------
  Sum of atomic charges =     0.000000

                    Cartesian Multipole Moments
 -----------------------------------------------------------------
    Charge (ESU x 10^10)
                -0.0000
    Dipole Moment (Debye)
         X      -0.9609      Y       0.3803      Z       0.4967
       Tot       1.1466
    Quadrupole Moments (Debye-Ang)
        XX     -99.5117     XY       2.2636     YY     -93.9043
        XZ      -2.1931     YZ       3.0333     ZZ    -101.9302

 Total job time:  53.11s(wall), 52.95s(cpu)
        *  Thank you very much for using Q-Chem.  Have a nice day.  *
