 Q-Chem 5.2, Q-Chem, Inc., Pleasanton, CA (2019)
 Q-Chem 5.2.1 for Intel X86 EM64T Linux

User input:
--------------------------------------------------------------
$molecule
0 1
C         4.36009541660000   -1.23717296060000   -0.11912793160000
C         3.10571402680000   -1.63360379220000    0.05675406080000
C         1.91135947550000   -0.79500072930000    0.04097847170000
C         0.66439572360000   -1.40901324210000    0.04754638660000
C        -0.51301795230000   -0.66010277600000    0.02512635000000
C        -1.77761123430000   -1.38056929460000    0.02792666140000
C        -3.00717782050000   -0.88997816270000   -0.00525857160000
F        -3.38419553960000    0.38094323690000   -0.04896146420000
F        -4.09552892010000   -1.65999542280000    0.00037512030000
C        -0.42751129430000    0.72669230150000    0.00396364140000
C         0.81703520700000    1.35674095890000    0.00549275930000
O         0.77856322570000    2.71664518380000   -0.00980102890000
C         1.99164739860000    3.42873654460000   -0.01123563080000
C         1.97961799370000    0.59947993900000    0.02336896180000
H         5.17605062520000   -1.93879455550000   -0.09464546790000
H         4.63105598260000   -0.21128317310000   -0.30110575210000
H         2.90932623580000   -2.68659361500000    0.21719416680000
H         0.60588870920000   -2.48750553120000    0.06441187140000
H        -1.71642981060000   -2.45892698050000    0.05925696500000
H        -1.30315686780000    1.35234148630000   -0.00993657690000
H         1.71396897600000    4.48140591920000   -0.02732979510000
H         2.59149256310000    3.20065160010000   -0.89842957970000
H         2.57971435990000    3.22483991960000    0.88962583360000
H         2.94458193210000    1.07737059590000    0.03388876810000
$end

$rem
BASIS = 6-31G*
GUI = 2
METHOD = B3LYP
PRINT_ORBITALS false
MOLDEN_FORMAT false
--------------------------------------------------------------

             Standard Nuclear Orientation (Angstroms)
    I     Atom           X                Y                Z
 ----------------------------------------------------------------
    1      C       3.8631178381     2.1272825047     0.1203781862
    2      C       2.5527706479     2.2497455925    -0.0515450053
    3      C       1.5633332415     1.1769735462    -0.0388755234
    4      C       0.2145485598     1.5127577704    -0.0402680191
    5      C      -0.7773260981     0.5311951237    -0.0204704881
    6      C      -2.1658927405     0.9672566905    -0.0174697282
    7      C      -3.2634578940     0.2270299444     0.0146239869
    8      F      -3.3624308647    -1.0951373067     0.0516593545
    9      F      -4.4902962216     0.7488863524     0.0148304160
   10      C      -0.3997822812    -0.8060580483    -0.0072623030
   11      C       0.9500183595    -1.1579838157    -0.0140540228
   12      O       1.2006862858    -2.4952049626    -0.0063931390
   13      C       2.5371356635    -2.9339923650    -0.0106418118
   14      C       1.9256407605    -0.1714277587    -0.0292403224
   15      H       4.5117645818     2.9860284379     0.0987453422
   16      H       4.3458166081     1.1811961625     0.2961847343
   17      H       2.1372610338     3.2380093824    -0.2057630362
   18      H      -0.0712545021     2.5544177249    -0.0509582963
   19      H      -2.3347350576     2.0342296323    -0.0427890240
   20      H      -1.1228920118    -1.6031552395     0.0042994507
   21      H       2.4889170696    -4.0216694031    -0.0001171475
   22      H       3.0772577598    -2.5885941432     0.8770057848
   23      H       3.0663422917    -2.6053720133    -0.9111399916
   24      H       2.9699393736    -0.4338673585    -0.0437803326
 ----------------------------------------------------------------

    9    -700.0384436604      5.21e-06  Convergence criterion met
 Total energy in the final basis set =     -700.0384436604

                    Orbital Energies (a.u.)
 --------------------------------------------------------------

 Alpha MOs
 -- Occupied --
-24.7429 -24.7321 -19.1782 -10.3552 -10.2471 -10.2408 -10.2057 -10.2011
-10.1977 -10.1918 -10.1841 -10.1832 -10.1815 -10.1810  -1.2839  -1.2226
 -1.0692  -0.8684  -0.8140  -0.7864  -0.7492  -0.7295  -0.6995  -0.6487
 -0.6254  -0.5964  -0.5747  -0.5640  -0.5329  -0.5173  -0.5125  -0.4917
 -0.4777  -0.4723  -0.4573  -0.4428  -0.4391  -0.4360  -0.4285  -0.4098
 -0.4014  -0.3892  -0.3752  -0.3622  -0.3566  -0.3372  -0.3279  -0.3173
 -0.2603  -0.2179  -0.2169

          Ground-State Mulliken Net Atomic Charges

     Atom                 Charge (a.u.)
  ----------------------------------------
      1 C                    -0.354621
      2 C                    -0.110464
      3 C                     0.180661
      4 C                    -0.281491
      5 C                     0.207265
      6 C                    -0.298765
      7 C                     0.546249
      8 F                    -0.232438
      9 F                    -0.249930
     10 C                    -0.255284
     11 C                     0.394000
     12 O                    -0.508528
     13 C                    -0.213286
     14 C                    -0.263857
     15 H                     0.144979
     16 H                     0.140845
     17 H                     0.128079
     18 H                     0.122480
     19 H                     0.158936
     20 H                     0.144796
     21 H                     0.170251
     22 H                     0.150777
     23 H                     0.151840
     24 H                     0.127505
  ----------------------------------------
  Sum of atomic charges =     0.000000

                    Cartesian Multipole Moments
 -----------------------------------------------------------------
    Charge (ESU x 10^10)
                 0.0000
    Dipole Moment (Debye)
         X       2.1156      Y       0.1856      Z      -0.0344
       Tot       2.1240
    Quadrupole Moments (Debye-Ang)
        XX     -74.6651     XY      -5.4737     YY     -72.2802
        XZ       0.2917     YZ      -0.3274     ZZ     -82.2032

 Total job time:  32.82s(wall), 32.71s(cpu)
        *  Thank you very much for using Q-Chem.  Have a nice day.  *
