 Q-Chem 5.2, Q-Chem, Inc., Pleasanton, CA (2019)
 Q-Chem 5.2.1 for Intel X86 EM64T Linux

User input:
--------------------------------------------------------------
$molecule
0 1
C        -1.02870559230000    2.28174006770000   -0.03092232510000
C        -1.57160791440000    1.22342580350000   -0.61614006230000
C        -1.37807946650000   -0.15172443030000   -0.19672821080000
C        -2.40439157330000   -1.13867423310000   -0.20878467120000
C        -1.87420424920000   -2.25569333700000    0.35238325200000
O        -0.59736759600000   -2.05204264890000    0.70265051500000
C        -0.27720864460000   -0.77705014620000    0.36202286160000
C         1.09270833910000   -0.40164504450000    0.60535081950000
C         1.80614642210000    0.51714942640000   -0.03127855900000
F         1.41239672100000    1.30020632140000   -1.02495027110000
F         3.07542337890000    0.78709938470000    0.26614805790000
H        -1.23769479890000    3.28084870660000   -0.37005217290000
H        -0.36637877510000    2.18899340070000    0.81314159060000
H        -2.27201487120000    1.35278558710000   -1.43094869480000
H        -3.40285419090000   -1.00771068590000   -0.57235203450000
H        -2.28785275220000   -3.22492707210000    0.54981678170000
H         1.61186200830000   -0.98926333270000    1.34833393770000
$end

$rem
BASIS = 6-31G*
GUI = 2
METHOD = B3LYP
PRINT_ORBITALS false
MOLDEN_FORMAT false
--------------------------------------------------------------

             Standard Nuclear Orientation (Angstroms)
    I     Atom           X                Y                Z
 ----------------------------------------------------------------
    1      C       0.3719216216    -2.3418950826    -0.7104792246
    2      C      -0.6106166967    -1.9356912927     0.0812712078
    3      C      -1.1781434959    -0.6006735276     0.0874861798
    4      C      -2.5650949133    -0.3270169488     0.2578083881
    5      C      -2.7184837249     1.0122872449     0.0950943313
    6      O      -1.5399171528     1.5998105501    -0.1504047486
    7      C      -0.5894255404     0.6299268541    -0.1452914990
    8      C       0.7628794519     1.0939864642    -0.3262056052
    9      C       1.8795594762     0.5236897891     0.1053747110
   10      F       1.9980668472    -0.6049652517     0.7892564269
   11      F       3.0886214210     1.0380438757    -0.1091215656
   12      H       0.7275609018    -3.3567861019    -0.6899722546
   13      H       0.8476419833    -1.6796670577    -1.4139469434
   14      H      -1.1013587654    -2.6381506093     0.7422856531
   15      H      -3.3319995005    -1.0478085009     0.4542191049
   16      H      -3.5834031582     1.6448708801     0.1304699495
   17      H       0.8651242775     2.0536683700    -0.8113822061
 ----------------------------------------------------------------

    9    -583.2864296104      7.51e-06  Convergence criterion met
 Total energy in the final basis set =     -583.2864296104

                    Orbital Energies (a.u.)
 --------------------------------------------------------------

 Alpha MOs
 -- Occupied --
-24.7407 -24.7350 -19.2202 -10.3579 -10.2491 -10.2371 -10.2085 -10.1933
-10.1910 -10.1845 -10.1780  -1.2840  -1.2237  -1.1244  -0.8306  -0.8111
 -0.7612  -0.7321  -0.6448  -0.6182  -0.5976  -0.5792  -0.5612  -0.5216
 -0.5122  -0.4964  -0.4696  -0.4543  -0.4528  -0.4397  -0.4319  -0.4239
 -0.4111  -0.3957  -0.3746  -0.3573  -0.3122  -0.2914  -0.2496  -0.2019

          Ground-State Mulliken Net Atomic Charges

     Atom                 Charge (a.u.)
  ----------------------------------------
      1 C                    -0.333740
      2 C                    -0.118851
      3 C                     0.073753
      4 C                    -0.214928
      5 C                     0.082278
      6 O                    -0.431911
      7 C                     0.290056
      8 C                    -0.327875
      9 C                     0.559193
     10 F                    -0.223189
     11 F                    -0.246231
     12 H                     0.142578
     13 H                     0.142007
     14 H                     0.132073
     15 H                     0.141144
     16 H                     0.155916
     17 H                     0.177726
  ----------------------------------------
  Sum of atomic charges =     0.000000

                    Cartesian Multipole Moments
 -----------------------------------------------------------------
    Charge (ESU x 10^10)
                 0.0000
    Dipole Moment (Debye)
         X      -1.2105      Y      -0.1167      Z      -0.1325
       Tot       1.2233
    Quadrupole Moments (Debye-Ang)
        XX     -57.1972     XY      -0.3170     YY     -57.6479
        XZ      -2.4019     YZ      -1.0543     ZZ     -61.7912

 Total job time:  19.19s(wall), 19.11s(cpu)
        *  Thank you very much for using Q-Chem.  Have a nice day.  *
