 Q-Chem 5.4, Q-Chem, Inc., Pleasanton, CA (2021)
 Q-Chem 5.4.2 for Intel X86 EM64T Linux

User input:
--------------------------------------------------------------
$molecule
0 1
C            0.19148632010000       -3.78383057650000       -0.32263040920000
C            0.94480269670000       -2.85146737460000        0.24391427120000
C            0.70262415910000       -1.41216584340000        0.13143699480000
C           -0.58913629450000       -0.94301555810000        0.11879037190000
C           -0.89617158640000        0.43164977920000        0.05027241240000
C           -2.25078063380000        0.95626606260000        0.03661823060000
C           -3.39044591620000        0.28228952570000       -0.00242585620000
F           -3.56409313470000       -1.03403658810000       -0.03896400050000
F           -4.58243016310000        0.87293535170000       -0.01479110920000
C            0.16382726030000        1.31531412820000        0.00895994580000
F           -0.08519846320000        2.64376764190000       -0.04047745460000
C            1.50918067640000        0.90106535380000        0.00935899470000
C            2.56884909090000        1.83104761360000       -0.05321755150000
C            3.86544359200000        1.40186549350000       -0.07703990960000
C            4.15005223280000        0.02976775750000       -0.04760237930000
C            3.13976273280000       -0.89150611530000        0.01762794990000
C            1.78926827590000       -0.49113528430000        0.06273189510000
H            0.40025707100000       -4.83207572440000       -0.19538875780000
H           -0.64976422380000       -3.53712583920000       -0.94828025720000
H            1.79672905370000       -3.14527563940000        0.84210167590000
H           -1.39543718950000       -1.65294273210000        0.19136992520000
H           -2.34912394100000        2.03229591950000        0.05047654320000
H            2.33210509240000        2.88378437110000       -0.08713976650000
H            4.67495094860000        2.11443597510000       -0.12562610760000
H            5.17831449150000       -0.29879631290000       -0.08067342080000
H            3.37986733840000       -1.94307427680000        0.02255561730000
$end

$rem
BASIS = 6-31G*
GUI = 2
METHOD = B3LYP
PRINT_ORBITALS false
MOLDEN_FORMAT false
$end
--------------------------------------------------------------

             Standard Nuclear Orientation (Angstroms)
    I     Atom           X                Y                Z
 ----------------------------------------------------------------
    1      C      -0.0933857711    -3.7396804931     0.3166527811
    2      C      -0.8490829687    -2.8083894571    -0.2484828929
    3      C      -0.6103740916    -1.3686565155    -0.1341255215
    4      C       0.6802466985    -0.8963898253    -0.1211199012
    5      C       0.9839596503     0.4789235325    -0.0508220937
    6      C       2.3372944589     1.0068071931    -0.0367476600
    7      C       3.4786002436     0.3355469132     0.0011536778
    8      F       3.6554491313    -0.9804016883     0.0358895307
    9      F       4.6691502218     0.9290668925     0.0140618044
   10      C      -0.0781717177     1.3599564119    -0.0081023213
   11      F       0.1676399274     2.6889429192     0.0430650914
   12      C      -1.4225159411     0.9424445242    -0.0087755085
   13      C      -2.4844247608     1.8697674225     0.0552703923
   14      C      -3.7799688255     1.4374081052     0.0787883503
   15      C      -4.0612531167     0.0646643614     0.0475696864
   16      C      -3.0487447623    -0.8540664697    -0.0191079768
   17      C      -1.6992355071    -0.4503589735    -0.0639574357
   18      H      -0.2996391021    -4.7882576729     0.1880486758
   19      H       0.7473965725    -3.4917739642     0.9424569365
   20      H      -1.7004209469    -3.1034620712    -0.8468855873
   21      H       1.4882526016    -1.6042600052    -0.1948205537
   22      H       2.4330232539     2.0830901819    -0.0491830007
   23      H      -2.2502290017     2.9230292316     0.0905553179
   24      H      -4.5911926955     2.1479459762     0.1284998869
   25      H      -5.0887079459    -0.2664384399     0.0804151386
   26      H      -3.2862977912    -1.9062067264    -0.0253961103
 ----------------------------------------------------------------

    9    -838.3904404130      4.75e-06  Convergence criterion met
 Total energy in the final basis set =     -838.3904404130

                    Orbital Energies (a.u.)
 --------------------------------------------------------------

 Alpha MOs
 -- Occupied --
-24.7468 -24.7364 -24.7169 -10.3598 -10.2747 -10.2137 -10.2059 -10.2053
-10.2047 -10.2007 -10.1946 -10.1946 -10.1942 -10.1939 -10.1935 -10.1932
-10.1836  -1.2881  -1.2271  -1.2270  -0.8906  -0.8466  -0.8162  -0.7904
 -0.7593  -0.7460  -0.7192  -0.6558  -0.6425  -0.6208  -0.6160  -0.5792
 -0.5656  -0.5494  -0.5409  -0.5216  -0.5149  -0.4943  -0.4793  -0.4699
 -0.4689  -0.4533  -0.4433  -0.4424  -0.4370  -0.4272  -0.4207  -0.4130
 -0.3952  -0.3905  -0.3887  -0.3699  -0.3489  -0.3441  -0.3383  -0.3109
 -0.2794  -0.2648  -0.2359  -0.2058

          Ground-State Mulliken Net Atomic Charges

     Atom                 Charge (a.u.)
  ----------------------------------------
      1 C                    -0.335970
      2 C                    -0.133378
      3 C                     0.118986
      4 C                    -0.285037
      5 C                     0.136370
      6 C                    -0.296556
      7 C                     0.548051
      8 F                    -0.234385
      9 F                    -0.245409
     10 C                     0.211559
     11 F                    -0.286146
     12 C                     0.062894
     13 C                    -0.181193
     14 C                    -0.134012
     15 C                    -0.127952
     16 C                    -0.199727
     17 C                     0.082551
     18 H                     0.144200
     19 H                     0.148392
     20 H                     0.140007
     21 H                     0.146928
     22 H                     0.174939
     23 H                     0.144638
     24 H                     0.133978
     25 H                     0.132113
     26 H                     0.134159
  ----------------------------------------
  Sum of atomic charges =     0.000000

                    Cartesian Multipole Moments
 -----------------------------------------------------------------
    Charge (ESU x 10^10)
                 0.0000
    Dipole Moment (Debye)
         X      -1.5215      Y      -0.6006      Z      -0.0651
       Tot       1.6371
    Quadrupole Moments (Debye-Ang)
        XX     -88.9445     XY      -0.0916     YY     -88.6496
        XZ       0.7794     YZ       0.3157     ZZ     -96.7583

 Total job time:  98.41s(wall), 86.46s(cpu)
        *  Thank you very much for using Q-Chem.  Have a nice day.  *
