 Q-Chem 5.4, Q-Chem, Inc., Pleasanton, CA (2021)
 Q-Chem 5.4.2 for Intel X86 EM64T Linux

User input:
--------------------------------------------------------------
$molecule
0 1
C            0.19226189360000       -3.78417054150000        0.32430915900000
C            0.94495167280000       -2.85150726320000       -0.24257819270000
C            0.70270449770000       -1.41223879230000       -0.12983905290000
C           -0.58909241520000       -0.94319753310000       -0.11625576650000
C           -0.89620851220000        0.43146454830000       -0.04790090190000
C           -2.25082224960000        0.95611329940000       -0.03506242240000
C           -3.39064195290000        0.28225272930000        0.00124932400000
F           -3.56461002620000       -1.03409087410000        0.03577470460000
F           -4.58257076110000        0.87308363520000        0.01230748470000
C            0.16374976720000        1.31518616380000       -0.00669279930000
F           -0.08533050770000        2.64362555160000        0.04307533470000
C            1.50914362490000        0.90106220580000       -0.00829385300000
C            2.56874980460000        1.83118706410000        0.05301995490000
C            3.86546776280000        1.40221500690000        0.07434759950000
C            4.15023507460000        0.03018103930000        0.04392120870000
C            3.13996848220000       -0.89124715220000       -0.01962992820000
C            1.78933708670000       -0.49108911920000       -0.06238645120000
H            0.40113690430000       -4.83233007070000        0.19643378520000
H           -0.64859248650000       -3.53795202940000        0.95064429310000
H            1.79648983870000       -3.14512720410000       -0.84140917050000
H           -1.39538266570000       -1.65322831630000       -0.18797196030000
H           -2.34901236770000        2.03219394860000       -0.04784821810000
H            2.33189911590000        2.88386896330000        0.08784483510000
H            4.67493230320000        2.11490977400000        0.12175971750000
H            5.17861159000000       -0.29823551220000        0.07485128280000
H            3.38028218130000       -1.94276206370000       -0.02535519020000
$end

$rem
BASIS = 6-31G*
GUI = 2
METHOD = B3LYP
PRINT_ORBITALS false
MOLDEN_FORMAT false
$end
--------------------------------------------------------------

             Standard Nuclear Orientation (Angstroms)
    I     Atom           X                Y                Z
 ----------------------------------------------------------------
    1      C      -0.0941333998    -3.7400353390    -0.3182104153
    2      C      -0.8492340836    -2.8084233467     0.2471974171
    3      C      -0.6104489015    -1.3687275657     0.1325447513
    4      C       0.6802100171    -0.8965727802     0.1186563757
    5      C       0.9840088401     0.4787351858     0.0484937339
    6      C       2.3373493102     1.0066506685     0.0352902689
    7      C       3.4788098713     0.3355081474     0.0002036529
    8      F       3.6559796843    -0.9804556894    -0.0324676208
    9      F       4.6693048840     0.9292132859    -0.0113531415
   10      C      -0.0780789809     1.3598252404     0.0057932450
   11      F       0.1677913727     2.6887954153    -0.0457344259
   12      C      -1.4224647116     0.9424410588     0.0076098784
   13      C      -2.4843076477     1.8699074219    -0.0552599522
   14      C      -3.7799755085     1.4377618058    -0.0763388127
   15      C      -4.0614219005     0.0650840817    -0.0441023487
   16      C      -3.0489400955    -0.8538022779     0.0209799033
   17      C      -1.6992947625    -0.4503103507     0.0635413650
   18      H      -0.3004992615    -4.7885219502    -0.1889500686
   19      H       0.7462878013    -3.4926378583    -0.9446623573
   20      H      -1.7002167413    -3.1032857591     0.8462075437
   21      H       1.4882011259    -1.6045462037     0.1915596902
   22      H       2.4329254698     2.0829829101     0.0466235272
   23      H      -2.2500019091     2.9231120292    -0.0914687619
   24      H      -4.5911538238     2.1484248749    -0.1249425685
   25      H      -5.0889904827    -0.2658685876    -0.0748512975
   26      H      -3.2867039257    -1.9058882618     0.0280866106
 ----------------------------------------------------------------

    9    -838.3904446051      4.75e-06  Convergence criterion met
 Total energy in the final basis set =     -838.3904446051

                    Orbital Energies (a.u.)
 --------------------------------------------------------------

 Alpha MOs
 -- Occupied --
-24.7468 -24.7364 -24.7169 -10.3598 -10.2747 -10.2137 -10.2059 -10.2053
-10.2047 -10.2008 -10.1946 -10.1946 -10.1942 -10.1939 -10.1935 -10.1933
-10.1836  -1.2881  -1.2271  -1.2270  -0.8906  -0.8466  -0.8162  -0.7904
 -0.7593  -0.7460  -0.7192  -0.6558  -0.6425  -0.6208  -0.6160  -0.5792
 -0.5656  -0.5495  -0.5409  -0.5216  -0.5149  -0.4943  -0.4793  -0.4699
 -0.4690  -0.4533  -0.4433  -0.4424  -0.4370  -0.4272  -0.4207  -0.4130
 -0.3952  -0.3905  -0.3887  -0.3699  -0.3489  -0.3441  -0.3383  -0.3109
 -0.2794  -0.2648  -0.2359  -0.2058

          Ground-State Mulliken Net Atomic Charges

     Atom                 Charge (a.u.)
  ----------------------------------------
      1 C                    -0.335983
      2 C                    -0.133351
      3 C                     0.118995
      4 C                    -0.285050
      5 C                     0.136415
      6 C                    -0.296549
      7 C                     0.548036
      8 F                    -0.234376
      9 F                    -0.245424
     10 C                     0.211539
     11 F                    -0.286150
     12 C                     0.062898
     13 C                    -0.181197
     14 C                    -0.134013
     15 C                    -0.127951
     16 C                    -0.199742
     17 C                     0.082569
     18 H                     0.144194
     19 H                     0.148380
     20 H                     0.140001
     21 H                     0.146918
     22 H                     0.174947
     23 H                     0.144641
     24 H                     0.133981
     25 H                     0.132115
     26 H                     0.134156
  ----------------------------------------
  Sum of atomic charges =     0.000000

                    Cartesian Multipole Moments
 -----------------------------------------------------------------
    Charge (ESU x 10^10)
                 0.0000
    Dipole Moment (Debye)
         X      -1.5221      Y      -0.6002      Z       0.0657
       Tot       1.6375
    Quadrupole Moments (Debye-Ang)
        XX     -88.9467     XY      -0.0936     YY     -88.6501
        XZ      -0.8004     YZ      -0.3155     ZZ     -96.7579

 Total job time:  91.44s(wall), 86.78s(cpu)
        *  Thank you very much for using Q-Chem.  Have a nice day.  *
