 Q-Chem 5.2, Q-Chem, Inc., Pleasanton, CA (2019)
 Q-Chem 5.2.1 for Intel X86 EM64T Linux

User input:
--------------------------------------------------------------
$molecule
0 1
C        -2.53283132520000    3.68143326310000    0.15490003480000
C        -1.46953183980000    2.88735648180000    0.16608465600000
C        -1.46985292270000    1.42775721160000    0.15908084140000
C        -2.62294764330000    0.67525973800000   -0.04400346350000
C        -2.59036944690000   -0.71642094850000   -0.02563680810000
C        -3.78057367510000   -1.53655026780000   -0.22933399960000
C        -4.96850123110000   -1.11874478060000   -0.64800824620000
C        -1.37220984120000   -1.35720841430000    0.19368015400000
C        -0.21021902640000   -0.62004964240000    0.37674818200000
O         0.93770457630000   -1.32175659390000    0.64350739150000
C         2.15106046200000   -0.84976860340000    0.21754708860000
C         3.26099530070000   -1.16761674320000    0.99448253900000
C         4.52228315040000   -0.77690533570000    0.58778300590000
C         4.68889414400000   -0.06753641800000   -0.59015064640000
C         3.58516998050000    0.23728454210000   -1.36816320820000
C         2.31815054700000   -0.15249632590000   -0.97448373440000
C        -0.25928646600000    0.76689859970000    0.36692035820000
H        -2.43024591520000    4.75299707870000    0.16552423230000
H        -3.54173245770000    3.30646331460000    0.14244231490000
H        -0.48325847400000    3.33480276190000    0.19626127260000
H        -3.55964503540000    1.17958056740000   -0.21142699210000
H        -3.63880464940000   -2.59015630330000   -0.02205049450000
H        -5.17331098080000   -0.09014274470000   -0.89071192440000
H        -5.78995550170000   -1.80314988470000   -0.77320699370000
H        -1.31213807990000   -2.43462515980000    0.21886646120000
H         3.11376526400000   -1.72209317670000    1.90822897740000
H         5.37908935170000   -1.02459738880000    1.19658759740000
H         5.67459784330000    0.24141956970000   -0.90333668110000
H         3.70819339400000    0.77878629120000   -2.29456277190000
H         1.45993233870000    0.07283669890000   -1.59110410760000
H         0.64329449460000    1.33626964000000    0.53900789310000
$end

$rem
BASIS = 6-31G*
GUI = 2
METHOD = B3LYP
PRINT_ORBITALS false
MOLDEN_FORMAT false
--------------------------------------------------------------

             Standard Nuclear Orientation (Angstroms)
    I     Atom           X                Y                Z
 ----------------------------------------------------------------
    1      C       2.9112210307    -3.3370952066     0.3061308565
    2      C       1.7635002028    -2.6710825545     0.2848500087
    3      C       1.5957931990    -1.2223820552     0.2246801630
    4      C       2.6560543033    -0.3496549744    -0.0018522861
    5      C       2.4632986623     1.0287375591    -0.0343036710
    6      C       3.5526378883     1.9728600196    -0.2637891420
    7      C       4.7838805230     1.6801505153    -0.6630185857
    8      C       1.1778435250     1.5321717797     0.1574785144
    9      C       0.1071295324     0.6729283005     0.3634197707
   10      O      -1.1159296637     1.2466363501     0.6006264227
   11      C      -2.2636344304     0.6228922744     0.1881164899
   12      C      -3.4085812083     0.8381995624     0.9492676757
   13      C      -4.6134014536     0.2902977327     0.5528856435
   14      C      -4.6883805180    -0.4752707110    -0.5989712364
   15      C      -3.5510949774    -0.6784011503    -1.3616940019
   16      C      -2.3403766575    -0.1312280715    -0.9782703855
   17      C       0.3156552736    -0.6985586814     0.4042866242
   18      H       2.9326359796    -4.4122674386     0.3554433527
   19      H       3.8702962496    -2.8489396035     0.2833715978
   20      H       0.8351146518    -3.2279394175     0.3280316801
   21      H       3.6458238107    -0.7482302542    -0.1476816718
   22      H       3.2889349502     3.0098214846    -0.0954969357
   23      H       5.1075893122     0.6740135902    -0.8674088129
   24      H       5.5219738453     2.4498175611    -0.8103382309
   25      H       0.9939155576     2.5956737382     0.1431992589
   26      H      -3.3330362476     1.4383150497     1.8426923862
   27      H      -5.4975712417     0.4591412408     1.1494146922
   28      H      -5.6295733160    -0.9068789126    -0.9039655882
   29      H      -3.6039942402    -1.2632977266    -2.2681556498
   30      H      -1.4573204195    -0.2779931873    -1.5834198143
   31      H      -0.5166209538    -1.3617129577     0.5940037262
 ----------------------------------------------------------------

    8    -693.3080290078      8.00e-06  Convergence criterion met
 Total energy in the final basis set =     -693.3080290078

                    Orbital Energies (a.u.)
 --------------------------------------------------------------

 Alpha MOs
 -- Occupied --
-19.1902 -10.2504 -10.2491 -10.1997 -10.1992 -10.1921 -10.1916 -10.1903
-10.1897 -10.1881 -10.1872 -10.1867 -10.1857 -10.1836 -10.1836 -10.1820
-10.1817  -1.0851  -0.8720  -0.8558  -0.8068  -0.7867  -0.7523  -0.7503
 -0.7300  -0.7205  -0.6474  -0.6309  -0.6182  -0.6072  -0.5658  -0.5560
 -0.5246  -0.5125  -0.4950  -0.4882  -0.4718  -0.4709  -0.4459  -0.4442
 -0.4272  -0.4262  -0.4235  -0.4040  -0.3952  -0.3815  -0.3762  -0.3691
 -0.3647  -0.3585  -0.3473  -0.3389  -0.3333  -0.3185  -0.2767  -0.2547
 -0.2401  -0.2239  -0.2132

          Ground-State Mulliken Net Atomic Charges

     Atom                 Charge (a.u.)
  ----------------------------------------
      1 C                    -0.349979
      2 C                    -0.115674
      3 C                     0.183745
      4 C                    -0.249882
      5 C                     0.181219
      6 C                    -0.113814
      7 C                    -0.350216
      8 C                    -0.258127
      9 C                     0.364924
     10 O                    -0.574463
     11 C                     0.350359
     12 C                    -0.175669
     13 C                    -0.132616
     14 C                    -0.129390
     15 C                    -0.134477
     16 C                    -0.174854
     17 C                    -0.257742
     18 H                     0.145637
     19 H                     0.145009
     20 H                     0.129680
     21 H                     0.123722
     22 H                     0.130462
     23 H                     0.144534
     24 H                     0.145786
     25 H                     0.138332
     26 H                     0.139365
     27 H                     0.132724
     28 H                     0.127071
     29 H                     0.132935
     30 H                     0.150764
     31 H                     0.150634
  ----------------------------------------
  Sum of atomic charges =     0.000000

                    Cartesian Multipole Moments
 -----------------------------------------------------------------
    Charge (ESU x 10^10)
                 0.0000
    Dipole Moment (Debye)
         X      -0.0528      Y      -0.7536      Z      -0.4233
       Tot       0.8660
    Quadrupole Moments (Debye-Ang)
        XX     -87.1170     XY       2.1772     YY     -93.6413
        XZ      -1.9073     YZ       1.8125     ZZ    -100.2016

 Total job time:  48.87s(wall), 48.70s(cpu)
        *  Thank you very much for using Q-Chem.  Have a nice day.  *
