 Q-Chem 5.2, Q-Chem, Inc., Pleasanton, CA (2019)
 Q-Chem 5.2.1 for Intel X86 EM64T Linux

User input:
--------------------------------------------------------------
$molecule
0 1
C        -0.36552929890000    1.83510039580000   -3.11030048380000
C        -0.95248408680000    1.32721696320000   -2.03251403480000
C        -1.05498024510000    1.92238076250000   -0.70811117050000
C        -2.01565475270000    1.39700323050000    0.15475775460000
C        -2.22961680570000    1.86629396020000    1.44123722340000
O        -3.17321610250000    1.35123143480000    2.28393599400000
C        -3.79236313830000    0.12195112510000    1.96698686770000
C        -2.83573845100000   -1.06723558780000    2.10875506670000
C        -3.36187142620000   -2.34093599120000    1.44609258770000
C        -3.23764807680000   -2.30804123030000   -0.07689541010000
C        -3.61249557610000   -3.64471735010000   -0.71244858820000
C        -3.60500156670000   -3.60557654290000   -2.24262564180000
C        -2.26225160610000   -3.22752701290000   -2.87160667280000
C        -1.14534580530000   -4.21850111740000   -2.55213248810000
C         0.16991790330000   -3.88374023040000   -3.25751070440000
C         0.84603859220000   -2.63887036620000   -2.69376658500000
C        -1.43595006420000    2.93270810150000    1.90855207680000
C        -1.54834461370000    3.54269116060000    3.22506606120000
C        -2.51887579170000    3.39053494620000    4.11952502300000
C        -0.45250523350000    3.43620971370000    1.05562044840000
C        -0.23746082550000    2.96407048200000   -0.22954657570000
O         0.72837815930000    3.45007449470000   -1.06280845100000
C         1.82579004830000    4.16024737500000   -0.52790921160000
C         2.73813289330000    3.32641267450000    0.37745178760000
C         3.59779783970000    2.31358585880000   -0.38134446980000
C         2.81331597420000    1.18493179970000   -1.05301171560000
C         2.08177554850000    0.24516221160000   -0.09312548460000
C         2.98146323390000   -0.54266288590000    0.86050800040000
C         3.95195791390000   -1.48042456930000    0.14561000830000
C         4.70706468740000   -2.37408615080000    1.12655996940000
C         5.68788482690000   -3.30503369660000    0.41781617160000
C         6.43648948860000   -4.19693405630000    1.40052941360000
H        -0.36189690680000    1.29646582940000   -4.04386767480000
H         0.11472025400000    2.79553912160000   -3.10449518670000
H        -1.45116293390000    0.36743753280000   -2.11805207760000
H        -2.61801847020000    0.58886457030000   -0.22710360080000
H        -4.23658259400000    0.15761640470000    0.96574838770000
H        -4.60839245380000    0.03458332390000    2.69010908130000
H        -2.66571017270000   -1.24454236660000    3.17241331710000
H        -1.87326961870000   -0.80018853640000    1.66570876150000
H        -4.40464196700000   -2.49855678590000    1.73107078660000
H        -2.78598500060000   -3.18996836200000    1.82129235620000
H        -2.20583593070000   -2.06082692000000   -0.33289101690000
H        -3.88690271680000   -1.53265247180000   -0.48971487820000
H        -4.61650697520000   -3.92390025760000   -0.38227547160000
H        -2.92930604980000   -4.41870490570000   -0.35882544290000
H        -4.35718231970000   -2.88616041270000   -2.57739104610000
H        -3.90383112000000   -4.58877992080000   -2.61484968720000
H        -1.97561101950000   -2.22864657900000   -2.54315413450000
H        -2.39374071380000   -3.18679146650000   -3.95617536250000
H        -1.46759189830000   -5.21739160940000   -2.85738780750000
H        -0.96627685690000   -4.24188101030000   -1.47585384530000
H        -0.01457103330000   -3.74710801840000   -4.32551486030000
H         0.85042789970000   -4.73172970330000   -3.14667502580000
H         0.24579287020000   -1.74920803670000   -2.86646043510000
H         1.81423992320000   -2.48555321160000   -3.16551624780000
H         1.00110199600000   -2.74829560990000   -1.62187997330000
H        -0.73018947860000    4.21439401160000    3.46264206570000
H        -3.36867372440000    2.75828666290000    3.94696961720000
H        -2.48384276860000    3.91180684550000    5.06224064450000
H         0.15558844140000    4.24456731920000    1.43251213100000
H         1.48115095080000    5.05584899380000    0.00651006290000
H         2.38222807630000    4.49016777210000   -1.41042678290000
H         2.13262373070000    2.81142481440000    1.12420012020000
H         3.39885542960000    4.01924606500000    0.90411100550000
H         4.32354940800000    1.88807238940000    0.31470308480000
H         4.16206733010000    2.84600597210000   -1.15189995440000
H         3.50566989450000    0.60118157030000   -1.66276448800000
H         2.07422406900000    1.61824158660000   -1.72717559890000
H         1.50778292820000   -0.46144134800000   -0.69702740640000
H         1.36180221270000    0.81564493310000    0.49725740630000
H         2.34045545520000   -1.13713812840000    1.51756471990000
H         3.54326120010000    0.14376823120000    1.49689687640000
H         4.67464800530000   -0.89744064760000   -0.42787515640000
H         3.39679511790000   -2.10535636200000   -0.55804064880000
H         3.99175184100000   -2.97226390700000    1.69658148330000
H         5.25329958470000   -1.74931368750000    1.83767574260000
H         6.40588553770000   -2.70790716650000   -0.14928839090000
H         5.14175114230000   -3.92805460530000   -0.29441505080000
H         7.00332141130000   -3.59416864130000    2.10699000400000
H         7.12846364480000   -4.85129597600000    0.87527416250000
H         5.73904116380000   -4.81481019640000    1.96222312060000
$end

$rem
BASIS = 6-31G*
GUI = 2
METHOD = B3LYP
PRINT_ORBITALS false
MOLDEN_FORMAT false
--------------------------------------------------------------

             Standard Nuclear Orientation (Angstroms)
    I     Atom           X                Y                Z
 ----------------------------------------------------------------
    1      C       0.6812334722     0.4085656227     3.5744141348
    2      C       1.1346071028    -0.0152321400     2.4001343805
    3      C       1.8070310867     0.7624533103     1.3696880288
    4      C       2.5161224206     0.0568275718     0.3987391939
    5      C       3.2081174966     0.6633771986    -0.6377372110
    6      O       3.9040861854    -0.0302901146    -1.5865593749
    7      C       3.7168388805    -1.4251655221    -1.7056850432
    8      C       2.3392892566    -1.7828223409    -2.2747480330
    9      C       1.9787412965    -3.2570073113    -2.0875742423
   10      C       1.5702340323    -3.5866884481    -0.6521516180
   11      C       1.0573530275    -5.0182838133    -0.5156623346
   12      C       0.7474453225    -5.4101210156     0.9312138866
   13      C      -0.3053085447    -4.5416461989     1.6232954056
   14      C      -1.6760487319    -4.6054125202     0.9535363491
   15      C      -2.7444865515    -3.8074126236     1.7026549600
   16      C      -2.5442555194    -2.2997905761     1.5948083438
   17      C       3.1983043673     2.0700184630    -0.7201583566
   18      C       3.8849199733     2.8515809898    -1.7378223309
   19      C       4.8014069313     2.4412040913    -2.6077542664
   20      C       2.4611295596     2.7739903086     0.2333440894
   21      C       1.7670443870     2.1661815603     1.2675723670
   22      O       1.0396216423     2.8521416028     2.1969190021
   23      C       0.6082011752     4.1682105444     1.9201257726
   24      C      -0.3876578903     4.2767343694     0.7608951594
   25      C      -1.7843575085     3.7519172410     1.0991419588
   26      C      -1.8575287955     2.2447340467     1.3510416477
   27      C      -1.5318762303     1.3696861679     0.1394553048
   28      C      -2.4832784914     1.5206064685    -1.0486439923
   29      C      -3.9239658603     1.1284946986    -0.7277011581
   30      C      -4.8041630419     1.1236907945    -1.9752226737
   31      C      -6.2486040768     0.7443778497    -1.6578884074
   32      C      -7.1221219897     0.7378204505    -2.9063049899
   33      H       0.2027632200    -0.2710172135     4.2606513218
   34      H       0.7792427919     1.4290150749     3.8940904860
   35      H       1.0353601230    -1.0676642991     2.1557770770
   36      H       2.5184505161    -1.0173787568     0.4871901997
   37      H       3.8920691964    -1.9239262534    -0.7456780120
   38      H       4.5022270882    -1.7465526193    -2.3958432926
   39      H       2.3318157449    -1.5302193974    -3.3367518382
   40      H       1.5843078170    -1.1612117924    -1.7873531610
   41      H       2.8233737004    -3.8818369811    -2.3869256669
   42      H       1.1421270423    -3.4956465025    -2.7481830026
   43      H       0.7870498740    -2.8898038865    -0.3484092063
   44      H       2.4218007625    -3.4570199869     0.0195621766
   45      H       1.8166686344    -5.7040031670    -0.9006623988
   46      H       0.1658096327    -5.1444534939    -1.1321731463
   47      H       1.6721002362    -5.3598186713     1.5124937626
   48      H       0.4095364609    -6.4494574888     0.9428766894
   49      H       0.0415409577    -3.5090423380     1.6583768293
   50      H      -0.4047035933    -4.8854323164     2.6563344865
   51      H      -1.9884367117    -5.6513947248     0.8974957621
   52      H      -1.6089522991    -4.2238524384    -0.0667077380
   53      H      -2.7469109064    -4.1010997685     2.7548333619
   54      H      -3.7233681342    -4.0606509397     1.2877745538
   55      H      -1.6235986568    -1.9864821727     2.0804480651
   56      H      -3.3687387971    -1.7719481761     2.0692316116
   57      H      -2.5025479536    -2.0001345593     0.5491381271
   58      H       3.6025392796     3.8990704179    -1.7434743156
   59      H       5.1441698949     1.4250741223    -2.6485368983
   60      H       5.2407601032     3.1312995144    -3.3094675598
   61      H       2.4531059828     3.8501748254     0.1495002804
   62      H       1.4694058455     4.8257294522     1.7399099855
   63      H       0.1296880884     4.4902460234     2.8499786572
   64      H       0.0073856187     3.7447450240    -0.1053697404
   65      H      -0.4672632418     5.3336356138     0.4952543184
   66      H      -2.4589936439     4.0175086471     0.2826944470
   67      H      -2.1412137719     4.2679271514     1.9946945085
   68      H      -2.8624537557     2.0038749979     1.7032198236
   69      H      -1.1631649509     1.9839095395     2.1500038402
   70      H      -1.5477195513     0.3288006421     0.4707557138
   71      H      -0.5149677965     1.5793783523    -0.1986135088
   72      H      -2.1187548290     0.8816568033    -1.8578912622
   73      H      -2.4608419684     2.5479764150    -1.4171586193
   74      H      -4.3445345513     1.8272668542    -0.0025281401
   75      H      -3.9344224386     0.1341730333    -0.2748382553
   76      H      -4.3982892281     0.4161786824    -2.7026198699
   77      H      -4.7847973737     2.1149948811    -2.4349399951
   78      H      -6.6566340106     1.4533785496    -0.9336493039
   79      H      -6.2673863163    -0.2458107804    -1.1965164614
   80      H      -7.1321919921     1.7220886664    -3.3697980472
   81      H      -8.1452721352     0.4650762238    -2.6579399355
   82      H      -6.7430019639     0.0225318852    -3.6331716800
 ----------------------------------------------------------------

    8   -1323.7174748933      6.57e-06  Convergence criterion met
 Total energy in the final basis set =    -1323.7174748933

                    Orbital Energies (a.u.)
 --------------------------------------------------------------

 Alpha MOs
 -- Occupied --
-19.1719 -19.1706 -10.2395 -10.2384 -10.2378 -10.2372 -10.1912 -10.1905
-10.1832 -10.1830 -10.1820 -10.1812 -10.1809 -10.1805 -10.1793 -10.1793
-10.1759 -10.1748 -10.1738 -10.1729 -10.1725 -10.1715 -10.1702 -10.1680
-10.1674 -10.1659 -10.1655 -10.1647 -10.1643 -10.1643 -10.1594 -10.1577
 -1.0631  -1.0622  -0.8595  -0.8201  -0.8097  -0.8054  -0.7985  -0.7923
 -0.7725  -0.7659  -0.7589  -0.7472  -0.7319  -0.7243  -0.7109  -0.6962
 -0.6831  -0.6630  -0.6484  -0.6310  -0.6272  -0.6190  -0.5990  -0.5892
 -0.5859  -0.5798  -0.5710  -0.5647  -0.5517  -0.5484  -0.5330  -0.5118
 -0.5083  -0.5049  -0.4809  -0.4794  -0.4739  -0.4703  -0.4635  -0.4615
 -0.4490  -0.4488  -0.4465  -0.4397  -0.4377  -0.4344  -0.4310  -0.4274
 -0.4212  -0.4184  -0.4089  -0.4065  -0.4035  -0.3969  -0.3962  -0.3908
 -0.3888  -0.3851  -0.3828  -0.3774  -0.3737  -0.3727  -0.3656  -0.3631
 -0.3596  -0.3547  -0.3533  -0.3510  -0.3468  -0.3417  -0.3394  -0.3335
 -0.3318  -0.3299  -0.3254  -0.3239  -0.3219  -0.3189  -0.3112  -0.3094
 -0.3077  -0.3041  -0.3023  -0.3002  -0.2987  -0.2967  -0.2905  -0.2828
 -0.2524  -0.2207  -0.1887

          Ground-State Mulliken Net Atomic Charges

     Atom                 Charge (a.u.)
  ----------------------------------------
      1 C                    -0.352114
      2 C                    -0.129846
      3 C                     0.152008
      4 C                    -0.296344
      5 C                     0.323888
      6 O                    -0.536179
      7 C                    -0.041441
      8 C                    -0.289499
      9 C                    -0.265361
     10 C                    -0.266524
     11 C                    -0.258458
     12 C                    -0.257737
     13 C                    -0.269125
     14 C                    -0.249563
     15 C                    -0.253456
     16 C                    -0.454600
     17 C                     0.151722
     18 C                    -0.119409
     19 C                    -0.352162
     20 C                    -0.293346
     21 C                     0.330325
     22 O                    -0.535851
     23 C                    -0.043267
     24 C                    -0.291105
     25 C                    -0.262421
     26 C                    -0.274832
     27 C                    -0.278783
     28 C                    -0.255995
     29 C                    -0.259565
     30 C                    -0.245150
     31 C                    -0.248101
     32 C                    -0.440490
     33 H                     0.133217
     34 H                     0.169332
     35 H                     0.131297
     36 H                     0.139803
     37 H                     0.140701
     38 H                     0.151591
     39 H                     0.144825
     40 H                     0.158252
     41 H                     0.130850
     42 H                     0.137106
     43 H                     0.142647
     44 H                     0.131857
     45 H                     0.128596
     46 H                     0.135530
     47 H                     0.125693
     48 H                     0.127673
     49 H                     0.143715
     50 H                     0.128589
     51 H                     0.126936
     52 H                     0.129932
     53 H                     0.129863
     54 H                     0.129169
     55 H                     0.153983
     56 H                     0.146332
     57 H                     0.146837
     58 H                     0.119167
     59 H                     0.168860
     60 H                     0.130544
     61 H                     0.133221
     62 H                     0.138257
     63 H                     0.149480
     64 H                     0.161351
     65 H                     0.133053
     66 H                     0.132706
     67 H                     0.123530
     68 H                     0.124883
     69 H                     0.164673
     70 H                     0.138252
     71 H                     0.139438
     72 H                     0.122668
     73 H                     0.127036
     74 H                     0.131894
     75 H                     0.130701
     76 H                     0.124526
     77 H                     0.125399
     78 H                     0.128958
     79 H                     0.128796
     80 H                     0.140837
     81 H                     0.139708
     82 H                     0.140516
  ----------------------------------------
  Sum of atomic charges =     0.000000

                    Cartesian Multipole Moments
 -----------------------------------------------------------------
    Charge (ESU x 10^10)
                 0.0000
    Dipole Moment (Debye)
         X      -0.6180      Y      -0.6543      Z      -0.3612
       Tot       0.9698
    Quadrupole Moments (Debye-Ang)
        XX    -208.8764     XY      -5.2727     YY    -186.2150
        XZ      -4.3394     YZ       3.3442     ZZ    -203.2784

 Total job time:  267.31s(wall), 265.06s(cpu)
        *  Thank you very much for using Q-Chem.  Have a nice day.  *
