 Q-Chem 5.2, Q-Chem, Inc., Pleasanton, CA (2019)
 Q-Chem 5.2.1 for Intel X86 EM64T Linux

User input:
--------------------------------------------------------------
$molecule
0 1
C        -3.74055386170000   -1.97816388290000   -0.44433856540000
C        -2.56968290000000   -2.06796418730000    0.18004192110000
C        -1.59108837940000   -1.01873724240000    0.25346456220000
C        -0.37354384510000   -1.06462286870000    0.87804173970000
C         0.39125481820000    0.11599463660000    0.76800441320000
C         1.70927273600000    0.24683671990000    1.46774842590000
C         2.77697131220000   -0.74387335650000    0.98166472220000
C         3.37744441320000   -0.43647167130000   -0.39018572610000
C         2.42124592790000   -0.67780950190000   -1.55191463860000
C        -0.26408001280000    1.09225954910000    0.05159344690000
C         0.08991278090000    2.44366079270000   -0.31486465940000
C         1.30812235890000    2.93114563580000   -0.52892656590000
S        -1.83318748880000    0.53703285460000   -0.47682473000000
H        -4.43509759120000   -2.79894777790000   -0.46704226520000
H        -4.03623385590000   -1.07526916350000   -0.95292420300000
H        -2.28645219320000   -2.98301379270000    0.68551402300000
H        -0.03436815440000   -1.93301233800000    1.41650983860000
H         1.53223219960000    0.04271447130000    2.52943828070000
H         2.08242655830000    1.26672523670000    1.38910520960000
H         2.35383208020000   -1.75027548080000    0.96454458680000
H         3.58765665640000   -0.74004445240000    1.71524828190000
H         4.25447373550000   -1.07598561150000   -0.52295398110000
H         3.72834058320000    0.59806574290000   -0.41067379230000
H         2.02480711930000   -1.69038980430000   -1.51310738620000
H         2.94231659200000   -0.55045615290000   -2.49856188630000
H         1.58784817580000    0.01740691730000   -1.52702115970000
H        -0.76553926790000    3.09173306320000   -0.46689115670000
H         2.19835117370000    2.33328587390000   -0.45918734350000
H         1.44736737980000    3.96182620310000   -0.80649519730000
$end

$rem
BASIS = 6-31G*
GUI = 2
METHOD = B3LYP
PRINT_ORBITALS false
MOLDEN_FORMAT false
--------------------------------------------------------------

             Standard Nuclear Orientation (Angstroms)
    I     Atom           X                Y                Z
 ----------------------------------------------------------------
    1      C       4.2311618445     0.6938994589    -0.4879593721
    2      C       3.1233538351     1.2236691141     0.0228825039
    3      C       1.8816002099     0.5241914455     0.2036979553
    4      C       0.7164117819     1.0257512524     0.7188586308
    5      C      -0.3548644651     0.1083017407     0.7580568278
    6      C      -1.6689641349     0.4857187070     1.3701279487
    7      C      -2.3935300934     1.6272183189     0.6422908241
    8      C      -3.0278269729     1.2499864602    -0.6965149822
    9      C      -2.0181145303     0.9918073729    -1.8082694066
   10      C       0.0049626418    -1.1285666509     0.2717620327
   11      C      -0.7171522250    -2.3699913022     0.1191097575
   12      C      -2.0194552499    -2.5270886690    -0.0972829335
   13      S       1.6785287401    -1.1448905063    -0.2267465126
   14      H       5.1338823558     1.2674927490    -0.6005607418
   15      H       4.2636163056    -0.3341382170    -0.8095027270
   16      H       3.1063977026     2.2590749125     0.3401911574
   17      H       0.6317075027     2.0390926238     1.0724866321
   18      H      -1.4631403675     0.8265854916     2.3907361026
   19      H      -2.3196008487    -0.3844461380     1.4414450326
   20      H      -1.6969179164     2.4527665457     0.4829586411
   21      H      -3.1860950267     1.9881712818     1.3032931024
   22      H      -3.6791416697     2.0733612475    -1.0025036205
   23      H      -3.6626471370     0.3706506344    -0.5638974528
   24      H      -1.3464597311     1.8411144987    -1.9157209649
   25      H      -2.5333928342     0.8412503110    -2.7546812433
   26      H      -1.4223725599     0.1080784939    -1.6018423226
   27      H      -0.0828787965    -3.2485817321     0.1452632610
   28      H      -2.6997852885    -1.7013875687    -0.1981587399
   29      H      -2.4451273821    -3.5102205245    -0.2021206338
 ----------------------------------------------------------------

    9    -865.0538407234      3.71e-06  Convergence criterion met
 Total energy in the final basis set =     -865.0538407234

                    Orbital Energies (a.u.)
 --------------------------------------------------------------

 Alpha MOs
 -- Occupied --
-88.8979 -10.2158 -10.2136 -10.1983 -10.1971 -10.1922 -10.1856 -10.1848
-10.1818 -10.1811 -10.1799 -10.1760 -10.1606  -7.9599  -5.9240  -5.9203
 -5.9168  -0.8886  -0.8121  -0.7979  -0.7727  -0.7489  -0.7159  -0.6944
 -0.6389  -0.6212  -0.5912  -0.5647  -0.5351  -0.5202  -0.4948  -0.4634
 -0.4561  -0.4531  -0.4326  -0.4266  -0.4110  -0.4014  -0.3933  -0.3851
 -0.3735  -0.3668  -0.3604  -0.3463  -0.3381  -0.3307  -0.3234  -0.3155
 -0.3079  -0.2682  -0.2421  -0.1985

          Ground-State Mulliken Net Atomic Charges

     Atom                 Charge (a.u.)
  ----------------------------------------
      1 C                    -0.374065
      2 C                    -0.055104
      3 C                    -0.132482
      4 C                    -0.177801
      5 C                     0.188166
      6 C                    -0.345634
      7 C                    -0.255061
      8 C                    -0.255097
      9 C                    -0.450580
     10 C                    -0.215445
     11 C                    -0.094541
     12 C                    -0.348283
     13 S                     0.227226
     14 H                     0.146475
     15 H                     0.156416
     16 H                     0.136826
     17 H                     0.134452
     18 H                     0.148092
     19 H                     0.146920
     20 H                     0.133613
     21 H                     0.130966
     22 H                     0.131988
     23 H                     0.131742
     24 H                     0.141477
     25 H                     0.137737
     26 H                     0.171497
     27 H                     0.141124
     28 H                     0.154643
     29 H                     0.144734
  ----------------------------------------
  Sum of atomic charges =     0.000000

                    Cartesian Multipole Moments
 -----------------------------------------------------------------
    Charge (ESU x 10^10)
                -0.0000
    Dipole Moment (Debye)
         X      -0.6191      Y       0.7059      Z       0.4659
       Tot       1.0482
    Quadrupole Moments (Debye-Ang)
        XX     -82.2102     XY       2.3732     YY     -81.0757
        XZ      -1.2528     YZ       1.9602     ZZ     -89.7498

 Total job time:  45.33s(wall), 45.19s(cpu)
        *  Thank you very much for using Q-Chem.  Have a nice day.  *
