 Q-Chem 5.2, Q-Chem, Inc., Pleasanton, CA (2019)
 Q-Chem 5.2.1 for Intel X86 EM64T Linux

User input:
--------------------------------------------------------------
$molecule
0 1
C        -3.61833826120000    0.33559036260000    0.07580942290000
C        -2.45300352390000   -0.10621947710000    0.52867748160000
C        -1.15624557670000    0.50360199680000    0.23328489680000
C        -1.06412170930000    1.87445511110000    0.01768184110000
C         0.14789361890000    2.45332358300000   -0.30752878510000
C         1.28234783100000    1.67401120780000   -0.37877017810000
C         1.22297723970000    0.29999295000000   -0.13934677250000
O         2.43810525710000   -0.32498000470000   -0.21082086230000
C         2.69779164740000   -1.49288065370000    0.53057131640000
C        -0.00702498760000   -0.30428183310000    0.14264389630000
C        -0.17113039570000   -1.76594812280000    0.25389958690000
C         0.04342888380000   -2.59601438710000   -0.75344892600000
H        -4.54402999420000   -0.15036706300000    0.33313461210000
H        -3.69419090250000    1.18430847400000   -0.58273769730000
H        -2.43392265170000   -0.98991465620000    1.15263175260000
H        -1.94798607520000    2.48571273340000    0.11236602810000
H         0.21205659320000    3.51582296000000   -0.48843621730000
H         2.24465619430000    2.10181565030000   -0.61204871780000
H         3.76482057570000   -1.46797043280000    0.75978006990000
H         2.47539713080000   -2.39534232300000   -0.04626626140000
H         2.12952250220000   -1.51615355300000    1.46325815840000
H        -0.52692619490000   -2.14629921410000    1.20506823010000
H         0.37472252520000   -2.23907459870000   -1.71511590570000
H        -0.10718922330000   -3.65857300190000   -0.65983255500000
$end

$rem
BASIS = 6-31G*
GUI = 2
METHOD = B3LYP
PRINT_ORBITALS false
MOLDEN_FORMAT false
--------------------------------------------------------------

             Standard Nuclear Orientation (Angstroms)
    I     Atom           X                Y                Z
 ----------------------------------------------------------------
    1      C      -3.4971776051     0.9551162594     0.0691485051
    2      C      -2.2616111381     0.9775424501    -0.4116456658
    3      C      -1.2650404676    -0.0733991234    -0.2040670288
    4      C      -1.6678213437    -1.3968873005    -0.0613913246
    5      C      -0.7384568197    -2.3905003867     0.1811915095
    6      C       0.6018295650    -2.0752559859     0.2415475214
    7      C       1.0357522112    -0.7590659114     0.0738292104
    8      O       2.3957071705    -0.6165094270     0.1231850199
    9      C       3.0414908157     0.4246670559    -0.5696398678
   10      C       0.0997496499     0.2619646387    -0.1235740593
   11      C       0.4704857367     1.6893321885    -0.1544510380
   12      C       0.9925332594     2.3230016118     0.8827211560
   13      H      -4.1914096570     1.7553976615    -0.1228608507
   14      H      -3.8584716298     0.1506047451     0.6872004578
   15      H      -1.9398783614     1.8328158291    -0.9909518448
   16      H      -2.7144197365    -1.6438644162    -0.1477122494
   17      H      -1.0570735324    -3.4145560619     0.3058617823
   18      H       1.3506019033    -2.8329794248     0.4108640293
   19      H       4.0224284436     0.0335798968    -0.8462625525
   20      H       3.1722401282     1.3090972234     0.0606980359
   21      H       2.4985473820     0.7079837489    -1.4742504324
   22      H       0.2538604191     2.2303493970    -1.0689745440
   23      H       1.1949772873     1.8119154339     1.8099601778
   24      H       1.2325368076     3.3726384041     0.8489343234
 ----------------------------------------------------------------

    9    -501.5493176086      2.57e-06  Convergence criterion met
 Total energy in the final basis set =     -501.5493176086

                    Orbital Energies (a.u.)
 --------------------------------------------------------------

 Alpha MOs
 -- Occupied --
-19.1679 -10.2424 -10.2290 -10.1927 -10.1923 -10.1915 -10.1867 -10.1827
-10.1807 -10.1769 -10.1766 -10.1755  -1.0568  -0.8619  -0.7960  -0.7847
 -0.7429  -0.7197  -0.6829  -0.6229  -0.6143  -0.5643  -0.5523  -0.5119
 -0.4940  -0.4817  -0.4655  -0.4558  -0.4514  -0.4296  -0.4223  -0.4100
 -0.3850  -0.3726  -0.3674  -0.3588  -0.3413  -0.3283  -0.3079  -0.2850
 -0.2625  -0.2265  -0.2118

          Ground-State Mulliken Net Atomic Charges

     Atom                 Charge (a.u.)
  ----------------------------------------
      1 C                    -0.338868
      2 C                    -0.115684
      3 C                     0.115547
      4 C                    -0.196442
      5 C                    -0.127144
      6 C                    -0.171281
      7 C                     0.308866
      8 O                    -0.513611
      9 C                    -0.202032
     10 C                     0.027360
     11 C                    -0.167715
     12 C                    -0.311727
     13 H                     0.140755
     14 H                     0.144412
     15 H                     0.126376
     16 H                     0.125409
     17 H                     0.128673
     18 H                     0.134530
     19 H                     0.153964
     20 H                     0.155835
     21 H                     0.145133
     22 H                     0.141999
     23 H                     0.154156
     24 H                     0.141489
  ----------------------------------------
  Sum of atomic charges =     0.000000

                    Cartesian Multipole Moments
 -----------------------------------------------------------------
    Charge (ESU x 10^10)
                 0.0000
    Dipole Moment (Debye)
         X       0.2516      Y       1.0465      Z      -0.6928
       Tot       1.2800
    Quadrupole Moments (Debye-Ang)
        XX     -66.4429     XY       3.3100     YY     -65.4226
        XZ      -1.7831     YZ      -1.9200     ZZ     -71.7276

 Total job time:  35.04s(wall), 34.63s(cpu)
        *  Thank you very much for using Q-Chem.  Have a nice day.  *
