 Q-Chem 5.2, Q-Chem, Inc., Pleasanton, CA (2019)
 Q-Chem 5.2.1 for Intel X86 EM64T Linux

User input:
--------------------------------------------------------------
$molecule
0 1
F        -3.15842607610000   -6.20232023370000    0.12751078730000
C        -3.16682910790000   -4.86732451080000    0.11891983400000
F        -4.42848148240000   -4.44956836450000    0.16855478580000
C        -2.06063542790000   -4.13973472670000    0.06967769420000
C        -1.91635956640000   -2.69433519680000    0.05573962700000
C        -0.62458983520000   -2.17188277680000    0.02866935880000
C        -0.44467664020000   -0.80013089070000    0.02093906130000
C         0.71848223450000    0.04289812460000   -0.02201370580000
C         2.08009692650000   -0.21562654460000   -0.04412441040000
C         2.97145685610000    0.84899859230000   -0.07058378830000
C         4.42143413830000    0.60470520810000   -0.10499968220000
C         4.99276600240000   -0.39265491240000    0.68197779830000
C         6.35554571880000   -0.62189810940000    0.64956336730000
C         7.17056421120000    0.13781301570000   -0.17276183080000
C         6.61341536550000    1.13038258830000   -0.96139782020000
C         5.25138620780000    1.36395161960000   -0.92666309340000
C         2.48242084640000    2.16252028560000   -0.05390265010000
C         1.13181225610000    2.44256190160000   -0.02442663860000
C         0.24580694210000    1.37478258960000   -0.02739821080000
N        -1.13491710070000    1.37142998180000    0.01669728640000
C        -1.95768357620000    2.50830734130000    0.02416746510000
C        -1.77934710330000    3.50486589340000   -0.93051258480000
C        -2.58897081680000    4.62552387530000   -0.91642651370000
C        -3.58416163460000    4.75652907560000    0.03784399900000
C        -3.76555920470000    3.76270548470000    0.98527158710000
C        -2.95434404800000    2.64308104560000    0.98583871480000
C        -1.56504645800000    0.06442481050000    0.04807697720000
C        -2.85535753840000   -0.44954393150000    0.04884016910000
C        -3.01534548620000   -1.81833221830000    0.05671640520000
H        -1.14434602410000   -4.71209661310000    0.03880765150000
H         0.23005061200000   -2.83145360200000    0.00971404510000
H         2.44126814950000   -1.23277842860000   -0.05905686830000
H         4.36445970330000   -0.97697093860000    1.33869227570000
H         6.78497337090000   -1.39500656340000    1.27036522550000
H         8.23507149490000   -0.04273140920000   -0.19881343140000
H         7.24358996830000    1.72364300220000   -1.60827890720000
H         4.82077288980000    2.12849203220000   -1.55720900930000
H         3.18850411860000    2.97954566560000   -0.03838903860000
H         0.77979369220000    3.46242806660000    0.01334499340000
H        -1.01693502600000    3.38801345310000   -1.68615007950000
H        -2.44712715630000    5.39609251850000   -1.65954788530000
H        -4.21698760930000    5.63095745340000    0.04302916520000
H        -4.53777888670000    3.86282106210000    1.73338571430000
H        -3.07800124230000    1.87629898720000    1.73594451500000
H        -3.71555960180000    0.20205172560000    0.03199941210000
H        -4.01523522950000   -2.21875481920000    0.05823330120000
$end

$rem
BASIS = 6-31G*
GUI = 2
METHOD = B3LYP
PRINT_ORBITALS false
MOLDEN_FORMAT false
--------------------------------------------------------------

             Standard Nuclear Orientation (Angstroms)
    I     Atom           X                Y                Z
 ----------------------------------------------------------------
    1      F      -4.9740715174    -4.9900840311    -0.1719486889
    2      C      -4.5746676145    -3.7166506368    -0.1372801425
    3      F      -5.6497833461    -2.9341885285    -0.1121852646
    4      C      -3.2982606787    -3.3614061580    -0.1293533117
    5      C      -2.7196975821    -2.0294732014    -0.0918174987
    6      C      -1.3301071999    -1.9267301519    -0.0628208686
    7      C      -0.7403289634    -0.6759326234    -0.0204071123
    8      C       0.6252418068    -0.2283724496    -0.0007147059
    9      C       1.8429680692    -0.8904514693     0.0098956111
   10      C       3.0168281765    -0.1491930886     0.0450775169
   11      C       4.3234552560    -0.8244866570     0.0465273244
   12      C       4.5325457015    -1.9657106109     0.8174812377
   13      C       5.7607080224    -2.6000506629     0.8187874142
   14      C       6.7997599595    -2.1083134314     0.0466472487
   15      C       6.6027694140    -0.9759513760    -0.7256912891
   16      C       5.3765505224    -0.3377740746    -0.7245158224
   17      C       2.9513399800     1.2502664345     0.0897771502
   18      C       1.7503628284     1.9292985876     0.0875584704
   19      C       0.5817757771     1.1840417512     0.0230336134
   20      N      -0.7348376576     1.6022266078     0.0252751800
   21      C      -1.1714064921     2.9358351231     0.0449370205
   22      C      -0.6608713792     3.8506429182    -0.8709382109
   23      C      -1.0901354418     5.1646491487    -0.8447986259
   24      C      -2.0341483059     5.5729483683     0.0827415606
   25      C      -2.5464816034     4.6618382073     0.9913681669
   26      C      -2.1159552924     3.3480094756     0.9799490561
   27      C      -1.5438922285     0.4890770945     0.0010403066
   28      C      -2.9284892398     0.3945363297    -0.0539168992
   29      C      -3.4984087867    -0.8595383218    -0.0954864937
   30      H      -2.5996580414    -4.1857942395    -0.1511708778
   31      H      -0.7172222027    -2.8155279640    -0.0774393792
   32      H       1.8770828661    -1.9687469612    -0.0272607957
   33      H       3.7310605492    -2.3440044804     1.4355291547
   34      H       5.9095762171    -3.4807987576     1.4267518799
   35      H       7.7586919591    -2.6052038563     0.0468884340
   36      H       7.4083790513    -0.5899299157    -1.3335676201
   37      H       5.2243187315     0.5353938898    -1.3425297479
   38      H       3.8717693322     1.8116119419     0.1532260267
   39      H       1.7249010311     3.0068800432     0.1478963809
   40      H       0.0582567668     3.5226867602    -1.6066108011
   41      H      -0.6914260477     5.8709054526    -1.5577908300
   42      H      -2.3699091567     6.5987032886     0.0973046163
   43      H      -3.2797547169     4.9770278603     1.7186831861
   44      H      -2.4964744134     2.6396421565     1.7005914626
   45      H      -3.5477125566     1.2782248026    -0.0754869768
   46      H      -4.5720502256    -0.9348543899    -0.1372190903
 ----------------------------------------------------------------

    9   -1255.4426780657      4.83e-06  Convergence criterion met
 Total energy in the final basis set =    -1255.4426780657

                    Orbital Energies (a.u.)
 --------------------------------------------------------------

 Alpha MOs
 -- Occupied --
-24.7375 -24.7261 -14.3870 -10.3477 -10.2402 -10.2243 -10.2240 -10.2005
-10.2004 -10.1997 -10.1997 -10.1984 -10.1971 -10.1969 -10.1897 -10.1895
-10.1891 -10.1886 -10.1882 -10.1882 -10.1877 -10.1866 -10.1860 -10.1859
-10.1830 -10.1828 -10.1815 -10.1811 -10.1809  -1.2772  -1.2164  -1.0064
 -0.8809  -0.8659  -0.8575  -0.8444  -0.8085  -0.7898  -0.7686  -0.7628
 -0.7587  -0.7442  -0.7383  -0.7188  -0.7108  -0.6581  -0.6419  -0.6286
 -0.6228  -0.6114  -0.6038  -0.5888  -0.5826  -0.5747  -0.5645  -0.5471
 -0.5344  -0.5238  -0.5113  -0.5099  -0.5005  -0.4796  -0.4763  -0.4678
 -0.4603  -0.4538  -0.4471  -0.4432  -0.4393  -0.4385  -0.4347  -0.4338
 -0.4295  -0.4250  -0.4206  -0.4167  -0.4126  -0.4024  -0.3858  -0.3823
 -0.3748  -0.3711  -0.3690  -0.3630  -0.3583  -0.3506  -0.3435  -0.3381
 -0.3326  -0.3302  -0.2949  -0.2809  -0.2676  -0.2656  -0.2491  -0.2479
 -0.2335  -0.2099  -0.1901

          Ground-State Mulliken Net Atomic Charges

     Atom                 Charge (a.u.)
  ----------------------------------------
      1 F                    -0.253615
      2 C                     0.530783
      3 F                    -0.238705
      4 C                    -0.290437
      5 C                     0.185258
      6 C                    -0.275607
      7 C                     0.062146
      8 C                     0.068003
      9 C                    -0.252919
     10 C                     0.079124
     11 C                     0.086081
     12 C                    -0.169768
     13 C                    -0.133729
     14 C                    -0.125490
     15 C                    -0.133444
     16 C                    -0.172114
     17 C                    -0.190246
     18 C                    -0.178549
     19 C                     0.314405
     20 N                    -0.735282
     21 C                     0.276585
     22 C                    -0.154134
     23 C                    -0.140969
     24 C                    -0.120366
     25 C                    -0.140863
     26 C                    -0.154678
     27 C                     0.319636
     28 C                    -0.174223
     29 C                    -0.211553
     30 H                     0.155838
     31 H                     0.129568
     32 H                     0.134017
     33 H                     0.128639
     34 H                     0.126837
     35 H                     0.125519
     36 H                     0.126602
     37 H                     0.127976
     38 H                     0.131496
     39 H                     0.141895
     40 H                     0.152631
     41 H                     0.137984
     42 H                     0.134185
     43 H                     0.138325
     44 H                     0.152975
     45 H                     0.142731
     46 H                     0.137448
  ----------------------------------------
  Sum of atomic charges =     0.000000

                    Cartesian Multipole Moments
 -----------------------------------------------------------------
    Charge (ESU x 10^10)
                 0.0000
    Dipole Moment (Debye)
         X       0.5869      Y       2.6171      Z       0.0528
       Tot       2.6826
    Quadrupole Moments (Debye-Ang)
        XX    -161.3324     XY     -11.7085     YY    -145.9034
        XZ      -4.8004     YZ      -3.6079     ZZ    -163.9515

 Total job time:  162.43s(wall), 162.02s(cpu)
        *  Thank you very much for using Q-Chem.  Have a nice day.  *
