 Q-Chem 5.2, Q-Chem, Inc., Pleasanton, CA (2019)
 Q-Chem 5.2.1 for Intel X86 EM64T Linux

User input:
--------------------------------------------------------------
$molecule
0 1
C        -4.09143549510000   -2.96228909510000   -0.48775432700000
C        -4.05641337180000   -1.63187420310000   -0.49529467190000
C        -2.89835767700000   -0.82983027060000   -0.20513285870000
C        -1.62498845530000   -1.20378381560000    0.13813947430000
C        -0.73512122680000   -0.13226663370000    0.34530270730000
C         0.68923384370000   -0.37030288020000    0.73646058320000
C         1.56849069100000   -0.57013111270000   -0.50458683040000
C         3.02871332350000   -0.87343905430000   -0.16829247620000
C         3.77547082580000    0.32391268980000    0.41689765820000
C         5.23820275060000    0.01680848940000    0.74239970280000
C         6.10205860560000   -0.18814726270000   -0.49668116660000
C        -1.33387959230000    1.09503000070000    0.15117486210000
C        -0.85170348410000    2.44855198190000    0.25685139160000
C         0.40905353960000    2.87434803400000    0.23628314030000
S        -3.01552156940000    0.90023837800000   -0.26705112990000
H        -4.99557537650000   -3.49880133160000   -0.71463516280000
H        -3.22523752350000   -3.55729480290000   -0.25603851720000
H        -4.95120283750000   -1.07166353910000   -0.73447000840000
H        -1.32629203500000   -2.23127115610000    0.24851597380000
H         0.73852956850000   -1.27382923570000    1.34941093950000
H         1.05105112400000    0.46492991320000    1.33529940830000
H         1.51515833130000    0.31891649230000   -1.13707155360000
H         1.15835558430000   -1.40266373200000   -1.08188967130000
H         3.52843722170000   -1.19200736260000   -1.08478312420000
H         3.07105014470000   -1.70504501300000    0.53954501410000
H         3.28100646280000    0.64253763540000    1.33699765400000
H         3.73494478230000    1.15601995880000   -0.29075074490000
H         5.28684036570000   -0.87518520600000    1.37130128470000
H         5.64746472610000    0.84936944050000    1.31990091080000
H         5.78525925680000   -1.06418721920000   -1.05651690930000
H         7.14227476240000   -0.32849260340000   -0.21149966410000
H         6.04057047700000    0.67936908480000   -1.15047272720000
H        -1.64454756980000    3.18361738690000    0.33512262130000
H         1.25225482770000    2.22093125840000    0.11438955010000
H         0.63157220240000    3.92371494340000    0.32834471490000
$end

$rem
BASIS = 6-31G*
GUI = 2
METHOD = B3LYP
PRINT_ORBITALS false
MOLDEN_FORMAT false
--------------------------------------------------------------

             Standard Nuclear Orientation (Angstroms)
    I     Atom           X                Y                Z
 ----------------------------------------------------------------
    1      C       4.4918881786    -2.5738151047     0.0329884918
    2      C       4.3401156501    -1.2597021846     0.1791374692
    3      C       3.1040657130    -0.5429769138     0.0146784200
    4      C       1.8545411844    -0.9967013520    -0.3199391375
    5      C       0.8653272015     0.0034655190    -0.3835888576
    6      C      -0.5485644401    -0.3247537456    -0.7464051271
    7      C      -1.3504143584    -0.7274909074     0.4978063083
    8      C      -2.7917920294    -1.1291524166     0.1840577176
    9      C      -3.6665900595     0.0465518981    -0.2474434189
   10      C      -5.1096475976    -0.3601775687    -0.5507672349
   11      C      -5.8958079252    -0.7663784023     0.6904128574
   12      C       1.3616636974     1.2552744057    -0.0851281005
   13      C       0.7578275166     2.5623221226    -0.0332511849
   14      C      -0.5333660764     2.8658483880     0.0759482439
   15      S       3.0709411593     1.1757058624     0.2507526833
   16      H       5.4490327362    -3.0445800263     0.1709881410
   17      H       3.6720123904    -3.2201083787    -0.2280318728
   18      H       5.1918432276    -0.6459881170     0.4429635378
   19      H       1.6429317220    -2.0312228424    -0.5251694456
   20      H      -0.5453909946    -1.1633802129    -1.4472572231
   21      H      -1.0090009082     0.5290474021    -1.2425455921
   22      H      -1.3474213883     0.0952166302     1.2164371310
   23      H      -0.8430975207    -1.5720146227     0.9711024720
   24      H      -3.2200133294    -1.5821851818     1.0799107643
   25      H      -2.7922752317    -1.8864274380    -0.6039328268
   26      H      -3.2437689199     0.4995153629    -1.1466915760
   27      H      -3.6679614085     0.8041754251     0.5404752574
   28      H      -5.1075489364    -1.1857279787    -1.2663073709
   29      H      -5.6161069451     0.4844745099    -1.0242886625
   30      H      -5.4783162859    -1.6608741574     1.1451676998
   31      H      -6.9313130188    -0.9729433952     0.4293859205
   32      H      -5.8818487321     0.0336262867     1.4277095728
   33      H       1.4785038335     3.3715022344    -0.0632923584
   34      H      -1.3093988871     2.1285695759     0.1595722369
   35      H      -0.8513998820     3.8941486993     0.1007225797
 ----------------------------------------------------------------

    9    -943.6822798146      3.75e-06  Convergence criterion met
 Total energy in the final basis set =     -943.6822798146

                    Orbital Energies (a.u.)
 --------------------------------------------------------------

 Alpha MOs
 -- Occupied --
-88.9001 -10.2155 -10.2128 -10.1974 -10.1967 -10.1920 -10.1844 -10.1837
-10.1813 -10.1793 -10.1789 -10.1760 -10.1756 -10.1751 -10.1684  -7.9621
 -5.9260  -5.9224  -5.9191  -0.8884  -0.8158  -0.8028  -0.7820  -0.7681
 -0.7401  -0.7065  -0.6889  -0.6521  -0.6126  -0.6018  -0.5873  -0.5646
 -0.5403  -0.5087  -0.4899  -0.4714  -0.4607  -0.4551  -0.4480  -0.4385
 -0.4207  -0.4183  -0.4098  -0.4004  -0.3870  -0.3754  -0.3713  -0.3647
 -0.3574  -0.3493  -0.3448  -0.3362  -0.3326  -0.3258  -0.3174  -0.3127
 -0.3057  -0.2684  -0.2433  -0.1961

          Ground-State Mulliken Net Atomic Charges

     Atom                 Charge (a.u.)
  ----------------------------------------
      1 C                    -0.341916
      2 C                    -0.087929
      3 C                    -0.129627
      4 C                    -0.159041
      5 C                     0.182064
      6 C                    -0.357625
      7 C                    -0.260680
      8 C                    -0.254804
      9 C                    -0.258030
     10 C                    -0.249975
     11 C                    -0.444863
     12 C                    -0.199108
     13 C                    -0.092137
     14 C                    -0.357403
     15 S                     0.224619
     16 H                     0.146236
     17 H                     0.141857
     18 H                     0.136561
     19 H                     0.131566
     20 H                     0.140559
     21 H                     0.155545
     22 H                     0.144267
     23 H                     0.135505
     24 H                     0.135644
     25 H                     0.126751
     26 H                     0.134912
     27 H                     0.128965
     28 H                     0.130587
     29 H                     0.130640
     30 H                     0.147619
     31 H                     0.143352
     32 H                     0.141979
     33 H                     0.136913
     34 H                     0.154321
     35 H                     0.142676
  ----------------------------------------
  Sum of atomic charges =     0.000000

                    Cartesian Multipole Moments
 -----------------------------------------------------------------
    Charge (ESU x 10^10)
                -0.0000
    Dipole Moment (Debye)
         X      -0.8219      Y      -0.6437      Z      -0.1873
       Tot       1.0606
    Quadrupole Moments (Debye-Ang)
        XX     -96.5868     XY      -2.2853     YY     -94.4655
        XZ       0.9714     YZ       0.9908     ZZ    -103.7050

 Total job time:  55.19s(wall), 54.71s(cpu)
        *  Thank you very much for using Q-Chem.  Have a nice day.  *
