 Q-Chem 5.2, Q-Chem, Inc., Pleasanton, CA (2019)
 Q-Chem 5.2.1 for Intel X86 EM64T Linux

User input:
--------------------------------------------------------------
$molecule
0 1
C         3.82491416360000    2.67354127150000   -0.27964360000000
C         3.58749590720000    1.37416307750000   -0.12834790890000
C         2.27612663180000    0.78262472970000   -0.06426995030000
C         1.01249993980000    1.31085023420000   -0.12564928160000
C         0.10502274030000    0.22924458510000    0.00393133060000
C        -1.34179307980000    0.48195761050000    0.00346129640000
O        -1.82445055240000    1.50994239380000   -0.40786066160000
O        -2.06796442450000   -0.50596563700000    0.54530365780000
C        -3.48115266480000   -0.30881626970000    0.59801366400000
C        -4.14704381580000   -0.66879423370000   -0.72286646530000
C         0.88744012170000   -0.91632111170000    0.12537152410000
C         0.67313535740000   -2.33753619290000    0.22863511000000
C        -0.47554761420000   -3.00405308180000    0.16800284450000
O         2.18833520640000   -0.55930376840000    0.08424251030000
H         4.82829395520000    3.05805649080000   -0.32130999700000
H         3.02674620210000    3.38953753310000   -0.36690785040000
H         4.40168074020000    0.66715946800000   -0.04309629170000
H         0.73143291590000    2.33667293190000   -0.24012794290000
H        -3.68324189970000    0.73802439190000    0.84732161690000
H        -3.82628014100000   -0.95809430430000    1.40558904610000
H        -3.78782029230000   -0.00949879200000   -1.50922943270000
H        -5.22312928800000   -0.55273001790000   -0.63080631610000
H        -3.92319610600000   -1.69803747560000   -0.99443161250000
H         1.60487312330000   -2.87862142080000    0.34380497510000
H        -1.41949721020000   -2.50770577150000    0.05238263960000
H        -0.48961042680000   -4.07768286840000    0.24203700600000
$end

$rem
BASIS = 6-31G*
GUI = 2
METHOD = B3LYP
PRINT_ORBITALS false
MOLDEN_FORMAT false
--------------------------------------------------------------

             Standard Nuclear Orientation (Angstroms)
    I     Atom           X                Y                Z
 ----------------------------------------------------------------
    1      C       4.5076422989    -1.3738605104     0.0511566198
    2      C       3.8778400156    -0.2030570956     0.0366668474
    3      C       2.4469866964    -0.0423309584     0.0134533617
    4      C       1.4096389955    -0.9384965959    -0.0049564270
    5      C       0.2103262034    -0.1828347504    -0.0332545670
    6      C      -1.0873642845    -0.8686796637    -0.0857546985
    7      O      -1.2218608560    -2.0336003275     0.2036709794
    8      O      -2.0921323649    -0.1009863724    -0.5307248375
    9      C      -3.3758951355    -0.7181933307    -0.6294969986
   10      C      -4.0985174107    -0.7264738131     0.7104537306
   11      C       0.5983215633     1.1544854252    -0.0165275311
   12      C      -0.0463588315     2.4423669410     0.0302762834
   13      C      -1.3436218052     2.7107314900     0.1420029585
   14      O       1.9463630839     1.2146063312     0.0089780756
   15      H       5.5812797244    -1.4316996776     0.0689430714
   16      H       3.9713576231    -2.3064455554     0.0465013843
   17      H       4.4321675031     0.7257616547     0.0426376153
   18      H       1.4612645790    -2.0070225515    -0.0067796634
   19      H      -3.2486838833    -1.7428774169    -0.9937904321
   20      H      -3.9180652460    -0.1240593277    -1.3683537482
   21      H      -3.5401980538    -1.3234267556     1.4273954408
   22      H      -5.0874329255    -1.1586610988     0.5873027198
   23      H      -4.1992325532     0.2858999295     1.0953601385
   24      H       0.6705294837     3.2539566652    -0.0092945306
   25      H      -2.0859401331     1.9375940079     0.1866287109
   26      H      -1.6899948576     3.7288802477     0.1839380780
 ----------------------------------------------------------------

    9    -652.0230494893      7.35e-06  Convergence criterion met
 Total energy in the final basis set =     -652.0230494893

                    Orbital Energies (a.u.)
 --------------------------------------------------------------

 Alpha MOs
 -- Occupied --
-19.2263 -19.1925 -19.1313 -10.3170 -10.2596 -10.2467 -10.2437 -10.2024
-10.2015 -10.2003 -10.1897 -10.1874 -10.1847 -10.1815  -1.1318  -1.1092
 -1.0168  -0.8242  -0.8215  -0.7831  -0.7724  -0.7243  -0.6814  -0.6300
 -0.6241  -0.5936  -0.5626  -0.5504  -0.5208  -0.4918  -0.4848  -0.4752
 -0.4658  -0.4573  -0.4436  -0.4370  -0.4202  -0.4137  -0.4083  -0.3972
 -0.3858  -0.3761  -0.3660  -0.3592  -0.3388  -0.3251  -0.3006  -0.2961
 -0.2776  -0.2699  -0.2021

          Ground-State Mulliken Net Atomic Charges

     Atom                 Charge (a.u.)
  ----------------------------------------
      1 C                    -0.343251
      2 C                    -0.122970
      3 C                     0.342638
      4 C                    -0.220123
      5 C                    -0.001653
      6 C                     0.570442
      7 O                    -0.489859
      8 O                    -0.463578
      9 C                    -0.047832
     10 C                    -0.467647
     11 C                     0.317226
     12 C                    -0.139419
     13 C                    -0.343201
     14 O                    -0.481290
     15 H                     0.150691
     16 H                     0.149353
     17 H                     0.145497
     18 H                     0.163137
     19 H                     0.171868
     20 H                     0.152703
     21 H                     0.181494
     22 H                     0.153065
     23 H                     0.156218
     24 H                     0.146220
     25 H                     0.175754
     26 H                     0.144519
  ----------------------------------------
  Sum of atomic charges =     0.000000

                    Cartesian Multipole Moments
 -----------------------------------------------------------------
    Charge (ESU x 10^10)
                 0.0000
    Dipole Moment (Debye)
         X      -0.5376      Y       1.2332      Z      -0.3979
       Tot       1.4029
    Quadrupole Moments (Debye-Ang)
        XX     -66.0394     XY      -2.7239     YY     -80.8914
        XZ       1.0942     YZ       1.6352     ZZ     -83.6481

 Total job time:  40.17s(wall), 40.04s(cpu)
        *  Thank you very much for using Q-Chem.  Have a nice day.  *
