 Q-Chem 5.2, Q-Chem, Inc., Pleasanton, CA (2019)
 Q-Chem 5.2.1 for Intel X86 EM64T Linux

User input:
--------------------------------------------------------------
$molecule
0 1
C        -2.88596085600000    3.00634941160000    2.83787830720000
C        -1.91755165180000    2.99559663010000    1.92844587670000
C        -1.93615619960000    2.30930457600000    0.64546162240000
C        -3.09717366740000    1.76351275370000    0.10545293340000
C        -3.11569217700000    1.08620342290000   -1.10467617170000
O        -4.23040319300000    0.49128339860000   -1.61967024910000
C        -5.34629234050000    0.22666271700000   -0.79750423920000
C        -5.10609285160000   -0.76497250990000    0.34582639580000
C        -4.70727873980000   -2.17227252240000   -0.10620690800000
C        -3.28752590730000   -2.29702987460000   -0.66561442140000
C        -2.20533073180000   -1.93411600400000    0.34946293670000
C        -0.79877642140000   -2.12699655070000   -0.21660992480000
C         0.26570982760000   -1.39791853740000    0.60387216890000
C         0.44554048080000   -1.96654874820000    2.00959845420000
C         1.44091788980000   -1.16728077300000    2.85241421180000
C         0.89444380560000    0.18601567810000    3.29371150070000
C        -1.92570687850000    0.99302144640000   -1.85358148140000
C        -1.81025037520000    0.34471364200000   -3.15184914730000
C        -2.78644689610000   -0.00792315210000   -3.98145705020000
C        -0.76229306990000    1.54157847190000   -1.31127894200000
C        -0.73697072360000    2.17691433370000   -0.08230360700000
O         0.39488575630000    2.67857385540000    0.49497187590000
C         1.64147906260000    2.39587860510000   -0.10512544770000
C         2.74166475860000    2.86606641050000    0.84276208090000
C         4.12012236200000    2.36275310050000    0.41269768910000
C         4.33670086500000    0.88853966750000    0.75251853210000
C         5.64743847310000    0.35641066490000    0.17886938830000
C         5.96901442900000   -1.07221662950000    0.62386680450000
C         4.90673479510000   -2.12028995590000    0.28372153760000
C         4.62116056800000   -2.23973034090000   -1.21156212280000
C         3.59923958270000   -3.33035524490000   -1.53932462630000
C         4.13275218140000   -4.74204770200000   -1.32624464680000
H        -2.77465278410000    3.54549809670000    3.76278953530000
H        -3.81864542670000    2.48263989700000    2.71156543540000
H        -0.99552885410000    3.52221977570000    2.13211979960000
H        -4.01304015030000    1.88669882460000    0.65934970420000
H        -6.08306658790000   -0.19117717370000   -1.49077796910000
H        -5.75674578910000    1.16261741980000   -0.39239004250000
H        -6.04519365920000   -0.83119218530000    0.90109456120000
H        -4.34878336700000   -0.37383911940000    1.02429895670000
H        -5.41509408480000   -2.51157086610000   -0.86658866010000
H        -4.80228805580000   -2.84053967600000    0.75417230220000
H        -3.18418079280000   -1.66647083770000   -1.54837053980000
H        -3.13867120570000   -3.33254072270000   -0.98372190260000
H        -2.33631167710000   -2.54646475440000    1.24432186310000
H        -2.30866670750000   -0.88709622440000    0.63859434480000
H        -0.77972417830000   -1.73028874260000   -1.23462717030000
H        -0.56130447430000   -3.19215774850000   -0.27116011400000
H        -0.01786817440000   -0.34644380620000    0.66945929310000
H         1.22225126990000   -1.45526044980000    0.07559770920000
H         0.79237024250000   -3.00034114560000    1.92905390340000
H        -0.51558210420000   -1.97774793920000    2.52536139140000
H         2.36258192280000   -1.01995017870000    2.28488884580000
H         1.69413348080000   -1.74965744250000    3.74210583840000
H         0.67300269970000    0.82331299810000    2.44245434960000
H         1.61943509800000    0.69854159400000    3.92302099880000
H        -0.02208964270000    0.05731860120000    3.86580277420000
H        -0.78488294810000    0.16362048560000   -3.45675564880000
H        -3.82283908610000    0.16248285210000   -3.75933420230000
H        -2.56340370150000   -0.47839897930000   -4.92511223430000
H         0.14295148330000    1.45542210100000   -1.89217660050000
H         1.72932381150000    2.91472757810000   -1.07033315190000
H         1.72917198210000    1.31588343930000   -0.27980641380000
H         2.51291996430000    2.50320380230000    1.84601376530000
H         2.73133954350000    3.95665856320000    0.87288705210000
H         4.88805599730000    2.95682757840000    0.91210499070000
H         4.23838722120000    2.51153063860000   -0.66360027180000
H         3.50824396110000    0.30201435320000    0.35577673150000
H         4.34085696450000    0.76903338710000    1.83840511260000
H         6.46533154710000    1.00544077940000    0.50270922040000
H         5.61060698280000    0.40404512760000   -0.91110427240000
H         6.11613075850000   -1.07531430760000    1.70710377420000
H         6.91478946690000   -1.36987587510000    0.16386212110000
H         3.97828942720000   -1.89091304980000    0.80989711860000
H         5.26067005140000   -3.08213144580000    0.65945860530000
H         5.55309682970000   -2.44748387230000   -1.74290815860000
H         4.23490403770000   -1.28743647190000   -1.58035505490000
H         3.30017462470000   -3.22438514340000   -2.58519221710000
H         2.70644922430000   -3.18512936740000   -0.92630668400000
H         5.03949827600000   -4.89765793620000   -1.90714815390000
H         3.39383987480000   -5.47526301100000   -1.64191916620000
H         4.36004834260000   -4.92218298800000   -0.27879987430000
$end

$rem
BASIS = 6-31G*
GUI = 2
METHOD = B3LYP
PRINT_ORBITALS false
MOLDEN_FORMAT false
--------------------------------------------------------------

             Standard Nuclear Orientation (Angstroms)
    I     Atom           X                Y                Z
 ----------------------------------------------------------------
    1      C       3.1892389856     3.5695656318    -1.7671997601
    2      C       2.3020662077     3.3062859869    -0.8139906300
    3      C       2.3053568861     2.1630320469     0.0862044098
    4      C       3.4003245601     1.3129792026     0.2123615048
    5      C       3.3995580113     0.2073294684     1.0496436516
    6      O       4.4391872199    -0.6717226842     1.1400195663
    7      C       5.4336844235    -0.7108644005     0.1397031760
    8      C       4.9527024304    -1.1199565183    -1.2565565134
    9      C       4.3673747617    -2.5322105163    -1.3390810194
   10      C       2.9916317917    -2.7042781440    -0.6895248013
   11      C       1.9094828290    -1.8373805652    -1.3303657554
   12      C       0.5362635105    -2.0754889409    -0.7029826805
   13      C      -0.4550671653    -0.9571905683    -1.0263227968
   14      C      -0.8280849500    -0.8836433986    -2.5052393988
   15      C      -1.7417679765     0.2992104193    -2.8307913245
   16      C      -1.0190098834     1.6407513896    -2.7790509101
   17      C       2.2691168321    -0.0397450636     1.8537978472
   18      C       2.1477179840    -1.1389344156     2.8004642266
   19      C       3.1134079575    -1.9090654732     3.2902628156
   20      C       1.1720651237     0.8140253258     1.7269427504
   21      C       1.1579802203     1.8900205715     0.8570524704
   22      O       0.0818391406     2.7116705104     0.6758892720
   23      C      -1.1458739371     2.3595047253     1.2781584248
   24      C      -2.2234707091     3.2986695279     0.7426861331
   25      C      -3.6291036101     2.8306392034     1.1215908661
   26      C      -4.1047353961     1.6562759381     0.2669944557
   27      C      -5.4376795763     1.0960997469     0.7566169021
   28      C      -6.0171324604     0.0179606371    -0.1622194039
   29      C      -5.1150228681    -1.1952895468    -0.4005821431
   30      C      -4.7419917707    -1.9416141930     0.8782998658
   31      C      -3.8873694241    -3.1837041127     0.6174422108
   32      C      -4.6554310007    -4.3152588147    -0.0552982555
   33      H       3.0976648039     4.4455436456    -2.3859147670
   34      H       4.0322780216     2.9336368987    -1.9793481419
   35      H       1.4642359042     3.9748693112    -0.6726479093
   36      H       4.2803177776     1.5407331973    -0.3660223732
   37      H       6.1431133695    -1.4568416054     0.5115680854
   38      H       5.9581133026     0.2535123142     0.0800990280
   39      H       5.8249832442    -1.0661886287    -1.9129506814
   40      H       4.2198668728    -0.4017679343    -1.6225964071
   41      H       5.0659318735    -3.2306580532    -0.8716461714
   42      H       4.2893674380    -2.8018216644    -2.3960033582
   43      H       3.0570318847    -2.4769334012     0.3742329117
   44      H       2.7021692830    -3.7545999669    -0.7826286826
   45      H       1.8733110569    -2.0465701366    -2.4017344242
   46      H       2.1581541578    -0.7829702960    -1.2003378038
   47      H       0.6570520046    -2.1248591063     0.3819467696
   48      H       0.1352164733    -3.0357470592    -1.0361532769
   49      H      -0.0116672417    -0.0103157612    -0.7146468881
   50      H      -1.3664018163    -1.1100734649    -0.4402942101
   51      H      -1.3297774269    -1.8130758007    -2.7880204054
   52      H       0.0776599505    -0.7985283866    -3.1071322984
   53      H      -2.5829252756     0.3120083706    -2.1339796244
   54      H      -2.1508450903     0.1603630865    -3.8348875570
   55      H      -0.6352251402     1.8486916293    -1.7844188664
   56      H      -1.6968500236     2.4453752057    -3.0573293532
   57      H      -0.1802431958     1.6473049503    -3.4720966657
   58      H       1.1321238262    -1.3056838273     3.1438360467
   59      H       4.1442889267    -1.7867673129     3.0167429358
   60      H       2.8883695950    -2.6909541662     3.9970786928
   61      H       0.3104919265     0.6076959513     2.3429399307
   62      H      -1.0770623429     2.4503705278     2.3715729113
   63      H      -1.3929671319     1.3195991375     1.0288907621
   64      H      -2.1313433733     3.3480778858    -0.3433980090
   65      H      -2.0400648414     4.2988726470     1.1381116961
   66      H      -4.3264239846     3.6617872485     0.9991513757
   67      H      -3.6415163239     2.5445069602     2.1763481355
   68      H      -3.3542703037     0.8663428075     0.2907565383
   69      H      -4.2088080671     1.9872513240    -0.7688978471
   70      H      -6.1622692187     1.9120200393     0.8222319423
   71      H      -5.3127097404     0.6944317721     1.7639468182
   72      H      -6.2429733671     0.4702912180    -1.1314706989
   73      H      -6.9616170052    -0.3265819313     0.2666571760
   74      H      -4.2035015558    -0.8838985299    -0.9140505842
   75      H      -5.6460626704    -1.8742037774    -1.0704028334
   76      H      -5.6530848263    -2.2350699613     1.4053563063
   77      H      -4.1811952292    -1.2723599216     1.5337935012
   78      H      -3.4982122344    -3.5455123563     1.5725128917
   79      H      -3.0309371237    -2.9093457633    -0.0032085672
   80      H      -5.5296571718    -4.5844132376     0.5338845752
   81      H      -4.0227246233    -5.1949397878    -0.1506424421
   82      H      -4.9860069561    -4.0285377978    -1.0501667965
 ----------------------------------------------------------------

    8   -1323.7195332417      7.29e-06  Convergence criterion met
 Total energy in the final basis set =    -1323.7195332417

                    Orbital Energies (a.u.)
 --------------------------------------------------------------

 Alpha MOs
 -- Occupied --
-19.1753 -19.1728 -10.2417 -10.2402 -10.2389 -10.2382 -10.1932 -10.1920
-10.1840 -10.1838 -10.1837 -10.1823 -10.1820 -10.1817 -10.1803 -10.1761
-10.1742 -10.1738 -10.1730 -10.1727 -10.1722 -10.1716 -10.1704 -10.1685
-10.1670 -10.1659 -10.1635 -10.1618 -10.1611 -10.1593 -10.1590 -10.1580
 -1.0660  -1.0647  -0.8622  -0.8192  -0.8099  -0.8055  -0.7990  -0.7916
 -0.7736  -0.7644  -0.7611  -0.7472  -0.7323  -0.7232  -0.7115  -0.6933
 -0.6814  -0.6612  -0.6490  -0.6369  -0.6267  -0.6201  -0.5956  -0.5833
 -0.5815  -0.5771  -0.5678  -0.5612  -0.5526  -0.5490  -0.5467  -0.5202
 -0.5131  -0.4956  -0.4895  -0.4777  -0.4761  -0.4655  -0.4636  -0.4598
 -0.4556  -0.4465  -0.4430  -0.4405  -0.4383  -0.4329  -0.4310  -0.4233
 -0.4214  -0.4191  -0.4141  -0.4124  -0.4067  -0.4028  -0.3936  -0.3927
 -0.3869  -0.3833  -0.3823  -0.3725  -0.3695  -0.3689  -0.3656  -0.3651
 -0.3597  -0.3524  -0.3494  -0.3455  -0.3443  -0.3417  -0.3384  -0.3342
 -0.3322  -0.3301  -0.3261  -0.3197  -0.3186  -0.3156  -0.3118  -0.3077
 -0.3069  -0.3052  -0.3034  -0.3024  -0.2993  -0.2957  -0.2895  -0.2875
 -0.2542  -0.2235  -0.1911

          Ground-State Mulliken Net Atomic Charges

     Atom                 Charge (a.u.)
  ----------------------------------------
      1 C                    -0.354368
      2 C                    -0.100776
      3 C                     0.113849
      4 C                    -0.286104
      5 C                     0.340182
      6 O                    -0.536711
      7 C                    -0.038090
      8 C                    -0.298281
      9 C                    -0.255300
     10 C                    -0.270094
     11 C                    -0.266563
     12 C                    -0.256968
     13 C                    -0.288207
     14 C                    -0.248813
     15 C                    -0.267079
     16 C                    -0.461025
     17 C                     0.153312
     18 C                    -0.121562
     19 C                    -0.349567
     20 C                    -0.290870
     21 C                     0.331394
     22 O                    -0.540821
     23 C                    -0.037492
     24 C                    -0.283694
     25 C                    -0.268726
     26 C                    -0.270677
     27 C                    -0.257304
     28 C                    -0.257965
     29 C                    -0.274649
     30 C                    -0.249311
     31 C                    -0.260101
     32 C                    -0.444793
     33 H                     0.142724
     34 H                     0.135645
     35 H                     0.151161
     36 H                     0.135101
     37 H                     0.149241
     38 H                     0.136833
     39 H                     0.135213
     40 H                     0.158192
     41 H                     0.124005
     42 H                     0.128093
     43 H                     0.165775
     44 H                     0.120707
     45 H                     0.124124
     46 H                     0.145178
     47 H                     0.133389
     48 H                     0.122273
     49 H                     0.153121
     50 H                     0.123702
     51 H                     0.122236
     52 H                     0.133961
     53 H                     0.138576
     54 H                     0.125536
     55 H                     0.168144
     56 H                     0.134860
     57 H                     0.142641
     58 H                     0.122114
     59 H                     0.169829
     60 H                     0.133199
     61 H                     0.135655
     62 H                     0.137431
     63 H                     0.146269
     64 H                     0.157685
     65 H                     0.144053
     66 H                     0.138172
     67 H                     0.129431
     68 H                     0.146253
     69 H                     0.137540
     70 H                     0.128041
     71 H                     0.132636
     72 H                     0.126543
     73 H                     0.126628
     74 H                     0.146902
     75 H                     0.132895
     76 H                     0.126045
     77 H                     0.127542
     78 H                     0.128547
     79 H                     0.141755
     80 H                     0.140808
     81 H                     0.143129
     82 H                     0.147640
  ----------------------------------------
  Sum of atomic charges =     0.000000

                    Cartesian Multipole Moments
 -----------------------------------------------------------------
    Charge (ESU x 10^10)
                -0.0000
    Dipole Moment (Debye)
         X      -0.4120      Y      -0.0269      Z      -0.1495
       Tot       0.4391
    Quadrupole Moments (Debye-Ang)
        XX    -189.4425     XY      -4.7073     YY    -203.7091
        XZ      -8.1609     YZ      -1.3814     ZZ    -202.1319

 Total job time:  306.03s(wall), 304.64s(cpu)
        *  Thank you very much for using Q-Chem.  Have a nice day.  *
