 Q-Chem 5.2, Q-Chem, Inc., Pleasanton, CA (2019)
 Q-Chem 5.2.1 for Intel X86 EM64T Linux

User input:
--------------------------------------------------------------
$molecule
0 1
C        -3.85197492780000    1.00659151120000    0.07820230410000
C        -3.00199488440000   -0.01347751790000    0.05807794500000
C        -1.54828856300000    0.06218552290000    0.00629724800000
C        -0.84527872990000    1.26902630630000   -0.03841424690000
C         0.53014272920000    1.26848049840000   -0.09256961230000
C         1.27312147000000    0.08792499250000   -0.10222998980000
C         2.72826901580000    0.12916062860000   -0.19079091790000
C         3.49927002800000    1.09541890990000    0.29283593270000
C         0.57464099500000   -1.13490464970000   -0.05396339180000
N         1.23349346890000   -2.34286378700000    0.04403594110000
C        -0.81690299610000   -1.12046555320000   -0.00533753410000
H        -4.91618004510000    0.84792360300000    0.11885243200000
H        -3.53066242520000    2.03358181460000    0.05631799430000
H        -3.39817075080000   -1.02210995980000    0.08372880360000
H        -1.37586086200000    2.20759200280000   -0.03989426090000
H         1.05750778370000    2.20882169590000   -0.15405926110000
H         3.20276944780000   -0.70064923960000   -0.70396745110000
H         3.09490850180000    1.93097240700000    0.83816879610000
H         4.56924269430000    1.07711717730000    0.17433931450000
H         2.19029920150000   -2.37515117240000   -0.26542332720000
H         0.69060413750000   -3.16085044700000   -0.17992609040000
H        -1.33956598760000   -2.06763376510000    0.03062459000000
$end

$rem
BASIS = 6-31G*
GUI = 2
METHOD = B3LYP
PRINT_ORBITALS false
MOLDEN_FORMAT false
--------------------------------------------------------------

             Standard Nuclear Orientation (Angstroms)
    I     Atom           X                Y                Z
 ----------------------------------------------------------------
    1      C       3.9235557271    -0.6790990800     0.0410271115
    2      C       2.9918451218     0.2670214572     0.0545609608
    3      C       1.5492192764     0.0726238481     0.0025182382
    4      C       0.9485228092    -1.1863934615    -0.0794926643
    5      C      -0.4224172365    -1.2983102297    -0.1316013934
    6      C      -1.2607604240    -0.1837854682    -0.1026654191
    7      C      -2.7078275082    -0.3428511478    -0.1903737956
    8      C      -3.3940697837    -1.3845453340     0.2634293767
    9      C      -0.6658889197     1.0906694360    -0.0165866019
   10      N      -1.4222284958     2.2360766892     0.1207028701
   11      C       0.7222474118     1.1902604865     0.0295305164
   12      H       4.9710968207    -0.4340044585     0.0851491402
   13      H       3.6884193419    -1.7280131280    -0.0130092743
   14      H       3.3031240380     1.3037454853     0.1116697390
   15      H       1.5550916535    -2.0771632013    -0.1115654545
   16      H      -0.8702415472    -2.2767718540    -0.2221700519
   17      H      -3.2515938469     0.4604812625    -0.6762343096
   18      H      -2.9195925497    -2.2004349577     0.7813495430
   19      H      -4.4623507202    -1.4513926390     0.1471315384
   20      H      -2.3796733076     2.1985768678    -0.1861813418
   21      H      -0.9499547293     3.1029596922    -0.0779459211
   22      H       1.1647154724     2.1759370671     0.0948083261
 ----------------------------------------------------------------

    9    -442.3963205429      2.18e-06  Convergence criterion met
 Total energy in the final basis set =     -442.3963205429

                    Orbital Energies (a.u.)
 --------------------------------------------------------------

 Alpha MOs
 -- Occupied --
-14.3415 -10.2241 -10.1893 -10.1877 -10.1848 -10.1828 -10.1784 -10.1753
-10.1753 -10.1745 -10.1692  -0.9250  -0.8449  -0.8008  -0.7613  -0.7287
 -0.7069  -0.6332  -0.6088  -0.5686  -0.5546  -0.5239  -0.5050  -0.4699
 -0.4618  -0.4513  -0.4222  -0.4211  -0.4073  -0.3870  -0.3774  -0.3626
 -0.3392  -0.3326  -0.3252  -0.2981  -0.2611  -0.2184  -0.1908

          Ground-State Mulliken Net Atomic Charges

     Atom                 Charge (a.u.)
  ----------------------------------------
      1 C                    -0.353761
      2 C                    -0.114358
      3 C                     0.187186
      4 C                    -0.194573
      5 C                    -0.198554
      6 C                     0.143902
      7 C                    -0.131742
      8 C                    -0.342531
      9 C                     0.259569
     10 N                    -0.802232
     11 C                    -0.259441
     12 H                     0.141493
     13 H                     0.143222
     14 H                     0.122436
     15 H                     0.117344
     16 H                     0.125916
     17 H                     0.113274
     18 H                     0.144457
     19 H                     0.138594
     20 H                     0.325752
     21 H                     0.323644
     22 H                     0.110403
  ----------------------------------------
  Sum of atomic charges =     0.000000

                    Cartesian Multipole Moments
 -----------------------------------------------------------------
    Charge (ESU x 10^10)
                 0.0000
    Dipole Moment (Debye)
         X      -0.7417      Y       1.4677      Z      -0.8297
       Tot       1.8419
    Quadrupole Moments (Debye-Ang)
        XX     -58.6707     XY      -1.9581     YY     -54.6148
        XZ       2.1113     YZ      -2.8083     ZZ     -70.3860

 Total job time:  24.24s(wall), 24.15s(cpu)
        *  Thank you very much for using Q-Chem.  Have a nice day.  *
