 Q-Chem 5.2, Q-Chem, Inc., Pleasanton, CA (2019)
 Q-Chem 5.2.1 for Intel X86 EM64T Linux

User input:
--------------------------------------------------------------
$molecule
0 1
C        -4.17870092520000   -1.14298432590000   -0.20766794720000
C        -3.27819957740000   -0.18813452420000   -0.01219877120000
C        -1.82746275660000   -0.34260639370000   -0.04828248940000
C        -1.17767938160000   -1.55854120470000   -0.28652940110000
C         0.20230718180000   -1.57534129780000   -0.29484059410000
C         0.91588421350000   -0.40196252040000   -0.06302822360000
C         2.40748959560000   -0.44040500050000   -0.05189249340000
N         2.94058585110000   -1.11977812510000   -1.10019183830000
O         3.10127823310000    0.05638027560000    0.80873771180000
C         0.18122690160000    0.77661439350000    0.17764021600000
C         0.84128607720000    2.05502129690000    0.42121809830000
C         0.17100400970000    3.18916377780000    0.58699666610000
N        -1.14594883070000    0.77537723820000    0.16885237600000
H        -5.23360147640000   -0.93342477170000   -0.16137336140000
H        -3.91229065920000   -2.16480301500000   -0.41948449660000
H        -3.59284012930000    0.82491774080000    0.19789888720000
H        -1.73637221280000   -2.46481919790000   -0.45385842240000
H         0.73193816750000   -2.50506621630000   -0.45537365980000
H         2.37974612030000   -1.46125441220000   -1.85957124750000
H         3.94295114570000   -1.17808254560000   -1.17316350330000
H         1.91876196370000    2.02931417170000    0.47836685470000
H        -0.90449980600000    3.20234818390000    0.54110172760000
H         0.67327099200000    4.12294054840000    0.77173166350000
$end

$rem
BASIS = 6-31G*
GUI = 2
METHOD = B3LYP
PRINT_ORBITALS false
MOLDEN_FORMAT false
--------------------------------------------------------------

             Standard Nuclear Orientation (Angstroms)
    I     Atom           X                Y                Z
 ----------------------------------------------------------------
    1      C       4.2530209932    -0.6746783548    -0.0266836664
    2      C       3.2472774091     0.1901446727     0.0108662191
    3      C       1.8241510807    -0.1316524814    -0.0201008873
    4      C       1.3201213884    -1.4336319347    -0.1111012294
    5      C      -0.0487477109    -1.6081310893    -0.1325876962
    6      C      -0.8941520202    -0.5030235947    -0.0711394262
    7      C      -2.3716518720    -0.7059865726    -0.1189793897
    8      N      -2.8118955181    -1.6859897135     0.7119540327
    9      O      -3.1272455929    -0.0880778765    -0.8373731581
   10      C      -0.3015717017     0.7733077484     0.0095641935
   11      C      -1.1059314931     1.9883335592     0.0873466844
   12      C      -0.5713875136     3.1956141466     0.2279740917
   13      N       1.0170861549     0.9201471882     0.0420267446
   14      H       5.2765206212    -0.3421950154     0.0011894188
   15      H       4.1073809863    -1.7401015948    -0.0868203597
   16      H       3.4418493619     1.2521720561     0.0713160886
   17      H       1.9804515438    -2.2833382314    -0.1697508442
   18      H      -0.4669598336    -2.6018452736    -0.2236866021
   19      H      -2.2072391411    -2.1439955043     1.3695448680
   20      H      -3.8001706481    -1.8740736384     0.7493326067
   21      H      -2.1740058309     1.8562194992     0.0058346810
   22      H       0.4960305151     3.3183480874     0.2953815357
   23      H      -1.1789986485     4.0825537087     0.2778250695
 ----------------------------------------------------------------

    9    -571.7830686339      4.95e-06  Convergence criterion met
 Total energy in the final basis set =     -571.7830686339

                    Orbital Energies (a.u.)
 --------------------------------------------------------------

 Alpha MOs
 -- Occupied --
-19.1145 -14.3623 -14.3256 -10.2938 -10.2340 -10.2333 -10.2145 -10.2068
-10.2013 -10.1934 -10.1911 -10.1772 -10.1748  -1.0423  -0.9563  -0.9136
 -0.8192  -0.8162  -0.7708  -0.7364  -0.6710  -0.6455  -0.6072  -0.5848
 -0.5607  -0.5505  -0.5091  -0.5079  -0.4744  -0.4628  -0.4413  -0.4322
 -0.4240  -0.4160  -0.4074  -0.4002  -0.3875  -0.3646  -0.3490  -0.3239
 -0.3046  -0.2732  -0.2650  -0.2585  -0.2483  -0.2267

          Ground-State Mulliken Net Atomic Charges

     Atom                 Charge (a.u.)
  ----------------------------------------
      1 C                    -0.344912
      2 C                    -0.090579
      3 C                     0.315585
      4 C                    -0.178323
      5 C                    -0.144628
      6 C                     0.024243
      7 C                     0.511615
      8 N                    -0.741631
      9 O                    -0.492710
     10 C                     0.274813
     11 C                    -0.104912
     12 C                    -0.329246
     13 N                    -0.582349
     14 H                     0.153062
     15 H                     0.144501
     16 H                     0.147747
     17 H                     0.136338
     18 H                     0.145301
     19 H                     0.337938
     20 H                     0.343661
     21 H                     0.165359
     22 H                     0.165830
     23 H                     0.143298
  ----------------------------------------
  Sum of atomic charges =     0.000000

                    Cartesian Multipole Moments
 -----------------------------------------------------------------
    Charge (ESU x 10^10)
                 0.0000
    Dipole Moment (Debye)
         X       1.1275      Y      -3.3831      Z       2.4260
       Tot       4.3130
    Quadrupole Moments (Debye-Ang)
        XX     -71.0316     XY       3.6939     YY     -64.6351
        XZ      -8.0846     YZ      -2.2672     ZZ     -77.7635

 Total job time:  31.66s(wall), 31.56s(cpu)
        *  Thank you very much for using Q-Chem.  Have a nice day.  *
