 Q-Chem 5.2, Q-Chem, Inc., Pleasanton, CA (2019)
 Q-Chem 5.2.1 for Intel X86 EM64T Linux

User input:
--------------------------------------------------------------
$molecule
0 1
C         3.69191520040000    1.44787239780000   -0.16172848980000
C         3.05965224400000    0.32698179500000    0.16359722220000
C         1.61790483440000    0.12484538060000    0.09893195840000
C         0.72185086020000    1.19104338500000    0.19615464030000
C        -0.65009836490000    1.00683259910000    0.12274446830000
C        -1.53225908120000    2.16396551450000    0.18907710400000
C        -2.71231905670000    2.29834492810000   -0.40610097480000
C        -1.09128967180000   -0.33339949430000    0.01356208770000
N        -2.41698048270000   -0.66818425600000    0.00050543500000
N        -2.80200499890000   -2.01416350440000    0.17976837590000
N        -0.24333146020000   -1.35489115320000   -0.07853485270000
C         1.06441868050000   -1.15343839210000   -0.05788421670000
C         1.90573910180000   -2.38308146640000   -0.21417511280000
H         4.76248022670000    1.53217607560000   -0.08511513210000
H         3.17427195280000    2.31743980890000   -0.53049996070000
H         3.63768070790000   -0.52503455740000    0.49637799170000
H         1.10495778710000    2.19233029800000    0.33300717010000
H        -1.12989526930000    2.99794481480000    0.75331324830000
H        -3.13245833960000    1.53718395530000   -1.04060878860000
H        -3.28005920990000    3.20895901660000   -0.31355269450000
H        -3.05332261950000   -0.01361023030000    0.43830970190000
H        -2.06255022130000   -2.49920472950000    0.69163036210000
H        -2.85372049260000   -2.45608167830000   -0.73808010670000
H         1.25962493630000   -3.23497584930000   -0.40670908360000
H         2.47689074210000   -2.57417658630000    0.69383840650000
H         2.60441122580000   -2.26744791830000   -1.04055410840000
$end

$rem
BASIS = 6-31G*
GUI = 2
METHOD = B3LYP
PRINT_ORBITALS false
MOLDEN_FORMAT false
--------------------------------------------------------------

             Standard Nuclear Orientation (Angstroms)
    I     Atom           X                Y                Z
 ----------------------------------------------------------------
    1      C       3.6466310559    -1.5126165827     0.1656694789
    2      C       3.0351751793    -0.3810251245    -0.1623724258
    3      C       1.5972116582    -0.1528230973    -0.1002349493
    4      C       0.6822236679    -1.2028438148    -0.1971711635
    5      C      -0.6862895315    -0.9938091458    -0.1261537476
    6      C      -1.5890729377    -2.1349514046    -0.1920369675
    7      C      -2.7722595471    -2.2470873455     0.4015380455
    8      C      -1.1034040920     0.3543316396    -0.0197371514
    9      N      -2.4228601746     0.7129858278    -0.0092367506
   10      N      -2.7832790003     2.0654027002    -0.1911875423
   11      N      -0.2373024758     1.3605124242     0.0720691849
   12      C       1.0666317455     1.1354798400     0.0537395198
   13      C       1.9297536416     2.3499994157     0.2094051178
   14      H       4.7156159002    -1.6163313230     0.0908306692
   15      H       3.1128357978    -2.3721231392     0.5350006495
   16      H       3.6289750453     0.4599015108    -0.4955929587
   17      H       1.0474173816    -2.2110915038    -0.3318751486
   18      H      -1.2009645731    -2.9769438050    -0.7543546996
   19      H      -3.1795594894    -1.4774694044     1.0342134688
   20      H      -3.3561888090    -3.1474620606     0.3095376458
   21      H      -3.0702428309     0.0692987282    -0.4469965710
   22      H      -2.0344273112     2.5362196818    -0.7026692808
   23      H      -2.8283993334     2.5096363705     0.7258907550
   24      H       1.2988178225     3.2137096338     0.3996195651
   25      H       2.5056256434     2.5293249594    -0.6980274578
   26      H       2.6249812709     2.2230974049     1.0370345769
 ----------------------------------------------------------------

    9    -553.0779348430      2.02e-06  Convergence criterion met
 Total energy in the final basis set =     -553.0779348430

                    Orbital Energies (a.u.)
 --------------------------------------------------------------

 Alpha MOs
 -- Occupied --
-14.3688 -14.3432 -14.3142 -10.2535 -10.2233 -10.1970 -10.1963 -10.1947
-10.1879 -10.1849 -10.1821 -10.1763 -10.1758  -0.9985  -0.9308  -0.8304
 -0.8194  -0.7789  -0.7550  -0.7404  -0.6874  -0.6357  -0.6150  -0.5904
 -0.5548  -0.5277  -0.5100  -0.4944  -0.4797  -0.4705  -0.4583  -0.4361
 -0.4294  -0.4165  -0.4034  -0.3952  -0.3852  -0.3738  -0.3690  -0.3436
 -0.3220  -0.3084  -0.2848  -0.2566  -0.2494  -0.2437  -0.1929

          Ground-State Mulliken Net Atomic Charges

     Atom                 Charge (a.u.)
  ----------------------------------------
      1 C                    -0.348106
      2 C                    -0.130660
      3 C                     0.116205
      4 C                    -0.229866
      5 C                     0.136107
      6 C                    -0.135825
      7 C                    -0.370781
      8 C                     0.455834
      9 N                    -0.536829
     10 N                    -0.566526
     11 N                    -0.582066
     12 C                     0.252576
     13 C                    -0.521938
     14 H                     0.140260
     15 H                     0.139501
     16 H                     0.128837
     17 H                     0.134813
     18 H                     0.136116
     19 H                     0.163307
     20 H                     0.144778
     21 H                     0.335068
     22 H                     0.320329
     23 H                     0.320198
     24 H                     0.169967
     25 H                     0.162430
     26 H                     0.166271
  ----------------------------------------
  Sum of atomic charges =     0.000000

                    Cartesian Multipole Moments
 -----------------------------------------------------------------
    Charge (ESU x 10^10)
                 0.0000
    Dipole Moment (Debye)
         X       0.5866      Y      -0.5643      Z      -0.1123
       Tot       0.8217
    Quadrupole Moments (Debye-Ang)
        XX     -75.1286     XY       3.8869     YY     -71.1554
        XZ      -1.9602     YZ       1.7152     ZZ     -78.5586

 Total job time:  36.62s(wall), 36.29s(cpu)
        *  Thank you very much for using Q-Chem.  Have a nice day.  *
