 Q-Chem 5.2, Q-Chem, Inc., Pleasanton, CA (2019)
 Q-Chem 5.2.1 for Intel X86 EM64T Linux

User input:
--------------------------------------------------------------
$molecule
0 1
C         3.80117888160000   -1.55937150750000   -0.08390385530000
C         2.48689932980000   -1.65561099400000    0.07432278460000
C         1.51788002050000   -0.56446191380000    0.04298900880000
C         0.16351950370000   -0.88220559020000    0.03578351970000
C        -0.80592078240000    0.11919370180000   -0.00141861100000
C        -2.23618604780000   -0.15065157790000   -0.01559059760000
C        -2.85620500170000   -1.32063020900000   -0.00085637130000
F        -2.31996787230000   -2.53502044630000    0.03141896760000
F        -4.18355495700000   -1.44020090450000   -0.01724668030000
C        -0.39897362730000    1.44911507920000   -0.02434642150000
C         0.95399688610000    1.78226627480000   -0.00962352560000
O         1.22899375030000    3.11566623760000   -0.02853019760000
C         2.57421457600000    3.52756700100000   -0.01611726860000
C         1.90842980710000    0.77596604910000    0.02380370520000
H         4.43252133320000   -2.43043946930000   -0.04874635740000
H         4.30490971970000   -0.62437525370000   -0.26077041410000
H         2.05037423200000   -2.63403813330000    0.23117770070000
H        -0.12608103390000   -1.91978769490000    0.05420210250000
H        -2.88650138410000    0.71169013710000   -0.04237870490000
H        -1.12039214820000    2.25032767130000   -0.05045791970000
H         2.54841558590000    4.61586538680000   -0.03708483290000
H         3.11477784020000    3.16269028260000   -0.89552460790000
H         3.08825253840000    3.19644475400000    0.89207185440000
H         2.95781280740000    1.01680160830000    0.04483272530000
$end

$rem
BASIS = 6-31G*
GUI = 2
METHOD = B3LYP
PRINT_ORBITALS false
MOLDEN_FORMAT false
--------------------------------------------------------------

             Standard Nuclear Orientation (Angstroms)
    I     Atom           X                Y                Z
 ----------------------------------------------------------------
    1      C       2.4173757720    -3.2102893313    -0.0964353672
    2      C       1.2240336117    -2.6511769701     0.0615402786
    3      C       0.9141292550    -1.2249869585     0.0385645779
    4      C      -0.4221487886    -0.8382258204     0.0294990061
    5      C      -0.7763803189     0.5099761643    -0.0000042224
    6      C      -2.1553304216     0.9757310752    -0.0156575541
    7      C      -3.2691687445     0.2596204596    -0.0093034782
    8      F      -3.3969160223    -1.0619239778     0.0138598108
    9      F      -4.4847618342     0.8059489159    -0.0261069144
   10      C       0.2301255090     1.4699718599    -0.0133017568
   11      C       1.5727171635     1.0972728261     0.0033947194
   12      O       2.4658928998     2.1249345291    -0.0058099965
   13      C       3.8403259164     1.8246925712     0.0091579402
   14      C       1.9114775973    -0.2478222347     0.0290923960
   15      H       2.5407587028    -4.2791911762    -0.0679005938
   16      H       3.3152327206    -2.6409561171    -0.2666032920
   17      H       0.3635438634    -3.2911694750     0.2113544279
   18      H      -1.1830951446    -1.6008700839     0.0403944243
   19      H      -2.2995557181     2.0462687735    -0.0358806366
   20      H      -0.0060375923     2.5220632385    -0.0332725130
   21      H       4.3511982307     2.7861186420    -0.0038032298
   22      H       4.1356360447     1.2475264946    -0.8730960929
   23      H       4.1231635650     1.2781909567     0.9147093205
   24      H       2.9441735303    -0.5522637762     0.0515228535
 ----------------------------------------------------------------

    9    -700.0385224967      5.35e-06  Convergence criterion met
 Total energy in the final basis set =     -700.0385224967

                    Orbital Energies (a.u.)
 --------------------------------------------------------------

 Alpha MOs
 -- Occupied --
-24.7433 -24.7327 -19.1793 -10.3556 -10.2478 -10.2415 -10.2060 -10.2015
-10.1971 -10.1904 -10.1842 -10.1840 -10.1807 -10.1802  -1.2842  -1.2230
 -1.0698  -0.8684  -0.8138  -0.7873  -0.7469  -0.7309  -0.7007  -0.6454
 -0.6264  -0.6002  -0.5767  -0.5614  -0.5326  -0.5177  -0.5088  -0.4956
 -0.4782  -0.4730  -0.4554  -0.4420  -0.4396  -0.4359  -0.4287  -0.4112
 -0.4044  -0.3894  -0.3737  -0.3623  -0.3545  -0.3371  -0.3291  -0.3174
 -0.2603  -0.2182  -0.2170

          Ground-State Mulliken Net Atomic Charges

     Atom                 Charge (a.u.)
  ----------------------------------------
      1 C                    -0.354956
      2 C                    -0.110904
      3 C                     0.182373
      4 C                    -0.283098
      5 C                     0.207103
      6 C                    -0.298448
      7 C                     0.544707
      8 F                    -0.234017
      9 F                    -0.249215
     10 C                    -0.252162
     11 C                     0.391016
     12 O                    -0.510689
     13 C                    -0.213441
     14 C                    -0.264624
     15 H                     0.145030
     16 H                     0.140231
     17 H                     0.130356
     18 H                     0.134073
     19 H                     0.160896
     20 H                     0.134667
     21 H                     0.169871
     22 H                     0.151323
     23 H                     0.152381
     24 H                     0.127529
  ----------------------------------------
  Sum of atomic charges =     0.000000

                    Cartesian Multipole Moments
 -----------------------------------------------------------------
    Charge (ESU x 10^10)
                 0.0000
    Dipole Moment (Debye)
         X       2.1157      Y       0.1336      Z       0.0191
       Tot       2.1200
    Quadrupole Moments (Debye-Ang)
        XX     -71.3450     XY       0.3600     YY     -75.7264
        XZ      -0.2627     YZ      -0.1836     ZZ     -82.2035

 Total job time:  33.14s(wall), 33.02s(cpu)
        *  Thank you very much for using Q-Chem.  Have a nice day.  *
