 Q-Chem 5.4, Q-Chem, Inc., Pleasanton, CA (2021)
 Q-Chem 5.4.2 for Intel X86 EM64T Linux

User input:
--------------------------------------------------------------
$molecule
0 1
C           -3.94730732890000        1.38624038410000        0.28869606760000
C           -3.44991302180000        0.33976649390000       -0.35305945560000
C           -2.11705424240000       -0.23812563650000       -0.13878718260000
C           -2.05015204470000       -1.62355493250000        0.01118150760000
C           -0.85040437090000       -2.25478289770000        0.26835951730000
C            0.30721630860000       -1.50765821230000        0.37027208360000
C            0.27161619340000       -0.12704526740000        0.19114207820000
C            1.49615711210000        0.66280247190000        0.31706860500000
C            2.71779881250000        0.26288986570000        0.00721240590000
F            3.08035426760000       -0.90198475960000       -0.51833007340000
F            3.80300399550000        1.02170757830000        0.16623387880000
C           -0.94445068640000        0.52099266890000       -0.07683554100000
C           -0.94797596760000        1.99413649120000       -0.36341054670000
H           -4.95220688050000        1.73102001260000        0.11186260510000
H           -3.38288896220000        1.92357751000000        1.03175951410000
H           -4.07300218710000       -0.20384295570000       -1.05330887640000
H           -2.96063342140000       -2.20127037040000       -0.05854647880000
H           -0.81541024730000       -3.32623016790000        0.39477347030000
H            1.24162471190000       -1.99614368020000        0.59625361250000
H            1.41603558820000        1.66718118800000        0.70384436030000
H           -0.11700638580000        2.25346438500000       -1.01689581560000
H           -0.84785742380000        2.57000240690000        0.55712660980000
H           -1.87387319860000        2.28900680250000       -0.84872271920000
$end

$rem
BASIS = 6-31G*
GUI = 2
METHOD = B3LYP
PRINT_ORBITALS false
MOLDEN_FORMAT false
$end
--------------------------------------------------------------

             Standard Nuclear Orientation (Angstroms)
    I     Atom           X                Y                Z
 ----------------------------------------------------------------
    1      C       3.8683128739    -1.2212381911     0.3332227335
    2      C       3.3375001547    -0.2118864854    -0.3404283946
    3      C       1.9850121887     0.3261393808    -0.1462920606
    4      C       1.8703601584     1.7123028052    -0.0377254037
    5      C       0.6489478576     2.3094380925     0.1979973014
    6      C      -0.4827979822     1.5264742627     0.3195954085
    7      C      -0.3995019463     0.1431863682     0.1816700586
    8      C      -1.5967454657    -0.6840356199     0.3283981761
    9      C      -2.8303469959    -0.3355356153     0.0041692257
   10      F      -3.2308110956     0.8001557538    -0.5565516206
   11      F      -3.8895010878    -1.1260088433     0.1833538355
   12      C       0.8388281844    -0.4705031444    -0.0643126576
   13      C       0.8935679393    -1.9505097839    -0.3069529038
   14      H       4.8849549784    -1.5365072359     0.1688742163
   15      H       3.3202294057    -1.7553191715     1.0907216334
   16      H       3.9438703829     0.3317378065    -1.0551929493
   17      H       2.7607960569     2.3185253674    -0.1226463807
   18      H       0.5769826973     3.3823355881     0.2924235093
   19      H      -1.4340535847     1.9891715386     0.5289486446
   20      H      -1.4835918404    -1.6731769015     0.7450363056
   21      H       0.0740090732    -2.2573867343    -0.9542196196
   22      H       0.8102660829    -2.5019260821     0.6300822070
   23      H       1.8305245981    -2.2277687857    -0.7812964008
 ----------------------------------------------------------------

    9    -624.8229847646      5.19e-06  Convergence criterion met
 Total energy in the final basis set =     -624.8229847646

                    Orbital Energies (a.u.)
 --------------------------------------------------------------

 Alpha MOs
 -- Occupied --
-24.7396 -24.7319 -10.3542 -10.1995 -10.1988 -10.1958 -10.1925 -10.1912
-10.1844 -10.1841 -10.1834 -10.1818 -10.1771  -1.2815  -1.2210  -0.8715
 -0.8131  -0.7878  -0.7617  -0.7252  -0.6883  -0.6415  -0.6171  -0.5933
 -0.5693  -0.5608  -0.5173  -0.5127  -0.4955  -0.4797  -0.4556  -0.4436
 -0.4378  -0.4298  -0.4259  -0.4215  -0.4113  -0.4033  -0.3890  -0.3759
 -0.3592  -0.3403  -0.3339  -0.2958  -0.2757  -0.2323  -0.2201

          Ground-State Mulliken Net Atomic Charges

     Atom                 Charge (a.u.)
  ----------------------------------------
      1 C                    -0.327563
      2 C                    -0.148042
      3 C                     0.087955
      4 C                    -0.174656
      5 C                    -0.133564
      6 C                    -0.179541
      7 C                     0.119311
      8 C                    -0.317224
      9 C                     0.553343
     10 F                    -0.236205
     11 F                    -0.249669
     12 C                     0.074160
     13 C                    -0.542201
     14 H                     0.143732
     15 H                     0.148699
     16 H                     0.137775
     17 H                     0.125346
     18 H                     0.128819
     19 H                     0.132972
     20 H                     0.165298
     21 H                     0.162412
     22 H                     0.156555
     23 H                     0.172287
  ----------------------------------------
  Sum of atomic charges =     0.000000

                    Cartesian Multipole Moments
 -----------------------------------------------------------------
    Charge (ESU x 10^10)
                 0.0000
    Dipole Moment (Debye)
         X       1.2463      Y      -0.3319      Z       0.2068
       Tot       1.3062
    Quadrupole Moments (Debye-Ang)
        XX     -73.7771     XY      -0.6152     YY     -69.1620
        XZ      -1.8538     YZ      -0.7713     ZZ     -75.3952

 Total job time:  61.34s(wall), 52.51s(cpu)
        *  Thank you very much for using Q-Chem.  Have a nice day.  *
