 Q-Chem 5.2, Q-Chem, Inc., Pleasanton, CA (2019)
 Q-Chem 5.2.1 for Intel X86 EM64T Linux

User input:
--------------------------------------------------------------
$molecule
0 1
C         4.03355576100000    0.54405582530000    0.16869277200000
C         3.28462530950000   -0.51942495480000   -0.10358771570000
C         1.84432323770000   -0.55019099190000   -0.08584298660000
N         1.16553788140000   -1.72150564530000   -0.01517419460000
N        -0.15951561960000   -1.55870055820000    0.01460372090000
C        -0.36027956920000   -0.25054490240000   -0.04106182230000
N        -1.59634672470000    0.34990975510000   -0.09315732280000
C        -2.85655993930000   -0.18288990680000   -0.01069326990000
C        -2.94187907450000   -1.66015443800000    0.23228884170000
O        -3.81513101710000    0.54975736490000   -0.12514771730000
C         0.87569793940000    0.45396575820000   -0.10449666080000
C         1.07238859390000    1.88282587930000   -0.24497992810000
C         0.35036017610000    2.81819993480000    0.36073950390000
H         5.10772996230000    0.49540127670000    0.12875902280000
H         3.60179254200000    1.48668978520000    0.45480357480000
H         3.75552549070000   -1.46468179530000   -0.34706742350000
H         1.55107152950000   -2.64909645150000    0.05535059260000
H        -1.56905207210000    1.34947800220000   -0.26377681780000
H        -2.48168762220000   -2.19307276760000   -0.59543999210000
H        -3.98542259480000   -1.94516954010000    0.32934624970000
H        -2.39260139450000   -1.92101964320000    1.13271355180000
H         1.87764964310000    2.16998558990000   -0.91106346610000
H        -0.42213977630000    2.58230939360000    1.07410490490000
H         0.53625035340000    3.86514060180000    0.19290881340000
$end

$rem
BASIS = 6-31G*
GUI = 2
METHOD = B3LYP
PRINT_ORBITALS false
MOLDEN_FORMAT false
--------------------------------------------------------------

             Standard Nuclear Orientation (Angstroms)
    I     Atom           X                Y                Z
 ----------------------------------------------------------------
    1      C       4.0374940727    -0.1202223135    -0.1781557672
    2      C       3.1838425939     0.8635749465     0.0853721417
    3      C       1.7480116087     0.7451648258     0.0753767495
    4      N       0.9514907652     1.8391022567    -0.0057225609
    5      N      -0.3497543675     1.5399247135    -0.0260425876
    6      C      -0.4139843781     0.2188411602     0.0466814585
    7      N      -1.5811277981    -0.5053773616     0.1130555465
    8      C      -2.8900093695    -0.1066987423     0.0312170684
    9      C      -3.1286218954     1.3506446117    -0.2292528293
   10      O      -3.7672106042    -0.9329347956     0.1599894824
   11      C       0.8884572521    -0.3533610784     0.1117202873
   12      C       1.2323945475    -1.7523595031     0.2684830134
   13      C       0.6082878480    -2.7649297573    -0.3217186454
   14      H       5.1010491626     0.0396376289    -0.1448758372
   15      H       3.7042360028    -1.1059707743    -0.4503260851
   16      H       3.5555710415     1.8554336622     0.3146625530
   17      H       1.2387706011     2.8005858739    -0.0897118043
   18      H      -1.4499192142    -1.4945313878     0.2956789588
   19      H      -2.7223823903     1.9387155800     0.5893161304
   20      H      -4.1964481863     1.5250811359    -0.3238875965
   21      H      -2.6131727485     1.6554018966    -1.1358709726
   22      H       2.0659142858    -1.9463192957     0.9334625477
   23      H      -0.1875529730    -2.6191767570    -1.0335361570
   24      H       0.9021253751    -3.7848513569    -0.1422012446
 ----------------------------------------------------------------

    9    -589.0124103386      5.47e-06  Convergence criterion met
 Total energy in the final basis set =     -589.0124103386

                    Orbital Energies (a.u.)
 --------------------------------------------------------------

 Alpha MOs
 -- Occupied --
-19.1049 -14.4177 -14.3658 -14.3508 -10.2821 -10.2547 -10.2391 -10.2154
-10.2049 -10.1993 -10.1959 -10.1885 -10.1705  -1.0651  -1.0339  -0.9398
 -0.8440  -0.8213  -0.7838  -0.7510  -0.7338  -0.6515  -0.6463  -0.6136
 -0.5806  -0.5500  -0.5338  -0.5027  -0.4814  -0.4693  -0.4658  -0.4507
 -0.4390  -0.4354  -0.4246  -0.3986  -0.3920  -0.3825  -0.3720  -0.3676
 -0.3293  -0.3167  -0.2993  -0.2849  -0.2442  -0.2262  -0.2156

          Ground-State Mulliken Net Atomic Charges

     Atom                 Charge (a.u.)
  ----------------------------------------
      1 C                    -0.353285
      2 C                    -0.100811
      3 C                     0.362319
      4 N                    -0.492255
      5 N                    -0.376388
      6 C                     0.533902
      7 N                    -0.687641
      8 C                     0.556615
      9 C                    -0.513997
     10 O                    -0.492438
     11 C                    -0.054809
     12 C                    -0.129132
     13 C                    -0.372292
     14 H                     0.152436
     15 H                     0.163506
     16 H                     0.133385
     17 H                     0.343585
     18 H                     0.337852
     19 H                     0.186937
     20 H                     0.169347
     21 H                     0.179251
     22 H                     0.146630
     23 H                     0.157381
     24 H                     0.149901
  ----------------------------------------
  Sum of atomic charges =     0.000000

                    Cartesian Multipole Moments
 -----------------------------------------------------------------
    Charge (ESU x 10^10)
                 0.0000
    Dipole Moment (Debye)
         X       5.2880      Y       1.9107      Z      -0.1489
       Tot       5.6246
    Quadrupole Moments (Debye-Ang)
        XX     -83.2125     XY      -2.4078     YY     -66.5610
        XZ       2.1684     YZ       0.1917     ZZ     -77.3209

 Total job time:  32.88s(wall), 32.77s(cpu)
        *  Thank you very much for using Q-Chem.  Have a nice day.  *
