 Q-Chem 5.2, Q-Chem, Inc., Pleasanton, CA (2019)
 Q-Chem 5.2.1 for Intel X86 EM64T Linux

User input:
--------------------------------------------------------------
$molecule
0 1
C        -2.92332224000000    4.19733409040000   -4.53636546790000
C        -2.46999981060000    4.38791425380000   -3.30374773650000
C        -1.77132309430000    3.41467166250000   -2.47078268040000
C        -1.27517810270000    3.82331581240000   -1.23300965940000
C        -0.59700599210000    2.94385284490000   -0.39672605780000
C        -0.10688268810000    3.43151578010000    0.88823028640000
C         0.42882215010000    2.71074042460000    1.86585637130000
C        -0.40867657000000    1.62395128500000   -0.81032403300000
C        -0.90063445250000    1.19755924570000   -2.03553356950000
O        -0.76423270390000   -0.06155271190000   -2.54559212680000
C        -0.16887593640000   -1.07140592680000   -1.76116711110000
C        -1.11500571980000   -1.60529274380000   -0.68118943340000
C        -0.48674463830000   -2.71280172000000    0.16335077880000
C         0.58850575790000   -2.20272691740000    1.12227676750000
C         1.12717337240000   -3.32557388280000    2.00655387230000
C         2.21420448350000   -2.81827472040000    2.96254504090000
C         2.73516519730000   -3.95578861490000    3.82013535550000
O         2.48311232170000   -4.09492995690000    4.97994655480000
O         3.50880621840000   -4.84545135170000    3.16988557430000
C        -1.57909899070000    2.09415935470000   -2.85839673620000
H        -3.42660655760000    4.98205066920000   -5.07488940060000
H        -2.81193412030000    3.26365497150000   -5.05990640350000
H        -2.60831874290000    5.35679524570000   -2.83898544370000
H        -1.42252252600000    4.84621445780000   -0.91601697430000
H        -0.21903393960000    4.49927885880000    1.03182994810000
H         0.56082332310000    1.64381767960000    1.80402389730000
H         0.75626931400000    3.16841195600000    2.78345529660000
H         0.13125604050000    0.95071727190000   -0.16632943770000
H         0.77244334860000   -0.71385521890000   -1.32741649040000
H         0.06467835320000   -1.86992895550000   -2.47189327940000
H        -2.00572998370000   -1.99047580280000   -1.18136131640000
H        -1.43293284850000   -0.78453342460000   -0.03502400320000
H        -0.05831470910000   -3.47125406290000   -0.49614303590000
H        -1.27438070900000   -3.19115744250000    0.74910519520000
H         0.16407365700000   -1.42124997640000    1.75624298610000
H         1.41578014580000   -1.76685560070000    0.55796583110000
H         1.52387357330000   -4.12173569280000    1.36983968440000
H         0.31061741200000   -3.75003035590000    2.59379331840000
H         1.79713390970000   -2.05750983110000    3.62261828420000
H         3.03820339480000   -2.37683349450000    2.39467780020000
H         3.63569435380000   -4.61391163010000    2.24053777210000
H        -1.94660381850000    1.72603576060000   -3.80175386270000
$end

$rem
BASIS = 6-31G*
GUI = 2
METHOD = B3LYP
PRINT_ORBITALS false
MOLDEN_FORMAT false
--------------------------------------------------------------

             Standard Nuclear Orientation (Angstroms)
    I     Atom           X                Y                Z
 ----------------------------------------------------------------
    1      C       6.7671427138    -0.9315764292     0.0366810950
    2      C       6.0157460916     0.1545373925    -0.0934280047
    3      C       4.5626081039     0.2285597819     0.0165345101
    4      C       3.9469569537     1.4783362610    -0.0487675495
    5      C       2.5671946595     1.6139501334     0.0542260155
    6      C       1.9834409361     2.9487826757    -0.0270295834
    7      C       0.6934170130     3.2551339340    -0.0921197752
    8      C       1.7847549658     0.4712247096     0.2292634845
    9      C       2.3788450755    -0.7810987087     0.2902071915
   10      O       1.7159331573    -1.9609100066     0.4710971597
   11      C       0.3058963859    -1.9705942866     0.5068507549
   12      C      -0.3141008478    -1.8293923845    -0.8867826035
   13      C      -1.8415760224    -1.8568441999    -0.8622412593
   14      C      -2.4576221554    -0.5863862795    -0.2771749339
   15      C      -3.9828345184    -0.6191254780    -0.3516698817
   16      C      -4.6039152926     0.6503077069     0.2447412617
   17      C      -6.1172259865     0.5848849842     0.1646807567
   18      O      -6.7794233922     1.2218719588    -0.5993841445
   19      O      -6.6916460927    -0.2811225990     1.0207867082
   20      C       3.7632933945    -0.8958345091     0.1832108164
   21      H       7.8384947233    -0.8853853671    -0.0589980412
   22      H       6.3546410662    -1.9034556631     0.2453728938
   23      H       6.4978748474     1.1037109952    -0.2946438764
   24      H       4.5559173517     2.3611622526    -0.1840519994
   25      H       2.7096021142     3.7522788747    -0.0470435755
   26      H      -0.0869216775     2.5130809471    -0.0913444775
   27      H       0.3638378003     4.2779026495    -0.1553207285
   28      H       0.7180080682     0.5827494287     0.3247286218
   29      H      -0.0647716040    -1.1973074228     1.1900028416
   30      H       0.0481163982    -2.9479600354     0.9259259163
   31      H       0.0545201915    -2.6547171956    -1.4990612177
   32      H       0.0304124444    -0.9016786394    -1.3482054910
   33      H      -2.1782880088    -2.7238275122    -0.2889182904
   34      H      -2.2025971342    -1.9771264811    -1.8857152175
   35      H      -2.0914421088     0.2798939944    -0.8323619695
   36      H      -2.1551643333    -0.4708470430     0.7658895422
   37      H      -4.3468041137    -1.5041663192     0.1783098135
   38      H      -4.2945613159    -0.7085006981    -1.3940784267
   39      H      -4.2704430045     1.5220609741    -0.3185084529
   40      H      -4.2941245628     0.7664298752     1.2872685326
   41      H      -6.0450647886    -0.7275797190     1.5829319174
   42      H       4.1877194467    -1.8846245444     0.2347301269
 ----------------------------------------------------------------

    9    -886.6909808110      2.40e-06  Convergence criterion met
 Total energy in the final basis set =     -886.6909808110

                    Orbital Energies (a.u.)
 --------------------------------------------------------------

 Alpha MOs
 -- Occupied --
-19.1969 -19.1778 -19.1311 -10.3165 -10.2491 -10.2458 -10.2090 -10.2080
-10.1997 -10.1983 -10.1968 -10.1966 -10.1934 -10.1913 -10.1904 -10.1866
-10.1833 -10.1825 -10.1821 -10.1802  -1.1055  -1.0690  -1.0219  -0.8676
 -0.8349  -0.8073  -0.8002  -0.7775  -0.7478  -0.7281  -0.7210  -0.6798
 -0.6425  -0.6318  -0.6187  -0.6041  -0.5968  -0.5774  -0.5451  -0.5307
 -0.5185  -0.5075  -0.4957  -0.4931  -0.4769  -0.4637  -0.4615  -0.4558
 -0.4441  -0.4423  -0.4287  -0.4270  -0.4225  -0.4114  -0.4041  -0.3945
 -0.3840  -0.3835  -0.3743  -0.3658  -0.3627  -0.3585  -0.3581  -0.3525
 -0.3451  -0.3400  -0.3259  -0.3226  -0.3186  -0.3158  -0.2669  -0.2621
 -0.2213  -0.2172

          Ground-State Mulliken Net Atomic Charges

     Atom                 Charge (a.u.)
  ----------------------------------------
      1 C                    -0.350683
      2 C                    -0.113787
      3 C                     0.191622
      4 C                    -0.286773
      5 C                     0.181071
      6 C                    -0.109444
      7 C                    -0.358107
      8 C                    -0.262060
      9 C                     0.395358
     10 O                    -0.528268
     11 C                    -0.036334
     12 C                    -0.288863
     13 C                    -0.266065
     14 C                    -0.263000
     15 C                    -0.272264
     16 C                    -0.375916
     17 C                     0.587796
     18 O                    -0.432305
     19 O                    -0.559212
     20 C                    -0.248336
     21 H                     0.144513
     22 H                     0.145471
     23 H                     0.127197
     24 H                     0.123614
     25 H                     0.129520
     26 H                     0.136439
     27 H                     0.146259
     28 H                     0.128722
     29 H                     0.139072
     30 H                     0.150678
     31 H                     0.151278
     32 H                     0.153840
     33 H                     0.132379
     34 H                     0.144727
     35 H                     0.145306
     36 H                     0.134123
     37 H                     0.128612
     38 H                     0.164822
     39 H                     0.177903
     40 H                     0.147140
     41 H                     0.410358
     42 H                     0.133598
  ----------------------------------------
  Sum of atomic charges =     0.000000

                    Cartesian Multipole Moments
 -----------------------------------------------------------------
    Charge (ESU x 10^10)
                 0.0000
    Dipole Moment (Debye)
         X       2.4117      Y      -1.6299      Z       1.5808
       Tot       3.3124
    Quadrupole Moments (Debye-Ang)
        XX    -157.7400     XY      14.9528     YY    -115.1198
        XZ     -12.1187     YZ      -0.1423     ZZ    -120.5354

 Total job time:  77.68s(wall), 77.42s(cpu)
        *  Thank you very much for using Q-Chem.  Have a nice day.  *
