 Q-Chem 5.2, Q-Chem, Inc., Pleasanton, CA (2019)
 Q-Chem 5.2.1 for Intel X86 EM64T Linux

User input:
--------------------------------------------------------------
$molecule
0 1
C         3.01688502680000   -2.42311453790000    0.13039344780000
C         2.70277361880000   -1.14485263240000   -0.03776286360000
C         1.36032203150000   -0.57188983080000   -0.03465567780000
C         1.22468831500000    0.81467437450000   -0.03204853580000
C        -0.04191587080000    1.39345429050000   -0.02660539920000
C        -0.16702346290000    2.80298315510000   -0.02735912320000
N        -0.26836103570000    3.94483737350000   -0.02833533760000
C        -1.18667693590000    0.60207498140000   -0.02475888590000
C        -1.07074427540000   -0.78632057860000   -0.03036145000000
C        -2.23146380210000   -1.67163040330000   -0.03195390600000
C        -3.49570540770000   -1.31493910860000    0.15599309500000
C         0.20417588500000   -1.35057693330000   -0.04114759110000
H         4.04162301110000   -2.75198735470000    0.11716817660000
H         2.27999884570000   -3.19072684000000    0.29408996420000
H         3.49736685140000   -0.42258593380000   -0.17940398570000
H         2.09982495800000    1.44864180140000   -0.03299199510000
H        -2.15495228800000    1.07749561650000   -0.03155896900000
H        -1.99800223320000   -2.71737024360000   -0.19073159760000
H        -3.79618289640000   -0.29705658610000    0.33641847010000
H        -4.28856198100000   -2.04277483660000    0.14285676630000
H         0.29071089610000   -2.42654012610000   -0.05889258030000
$end

$rem
BASIS = 6-31G*
GUI = 2
METHOD = B3LYP
PRINT_ORBITALS false
MOLDEN_FORMAT false
--------------------------------------------------------------

             Standard Nuclear Orientation (Angstroms)
    I     Atom           X                Y                Z
 ----------------------------------------------------------------
    1      C       3.8240887469    -0.1638435026     0.1148334362
    2      C       2.8249014836     0.6964188789    -0.0350647579
    3      C       1.3995494946     0.3820265246    -0.0338622770
    4      C       0.4830645319     1.4310441930    -0.0097616130
    5      C      -0.8839523635     1.1654343920    -0.0054926767
    6      C      -1.8052335139     2.2393131345     0.0157107689
    7      N      -2.5515515409     3.1092718077     0.0325221371
    8      C      -1.3552449559    -0.1438473214    -0.0261615896
    9      C      -0.4537324027    -1.2057533144    -0.0534522484
   10      C      -0.8834077992    -2.6006585385    -0.0792264708
   11      C      -2.1188949356    -3.0488682741     0.1039105298
   12      C       0.9115923863    -0.9233977912    -0.0627565128
   13      H       4.8490038803     0.1645909160     0.1048346470
   14      H       3.6712647573    -1.2196168643     0.2597950752
   15      H       3.0510994532     1.7484523174    -0.1582309849
   16      H       0.8265060366     2.4555183874     0.0069802592
   17      H      -2.4194762177    -0.3198835827    -0.0333194434
   18      H      -0.0858975476    -3.3127231024    -0.2530882795
   19      H      -2.9546768287    -2.3988164142     0.2983997927
   20      H      -2.3408550686    -4.1016124048     0.0722490299
   21      H       1.6075082865    -1.7480221915    -0.0973345876
 ----------------------------------------------------------------

    9    -479.2878160092      4.80e-06  Convergence criterion met
 Total energy in the final basis set =     -479.2878160092

                    Orbital Energies (a.u.)
 --------------------------------------------------------------

 Alpha MOs
 -- Occupied --
-14.3308 -10.2371 -10.2226 -10.2187 -10.2183 -10.2155 -10.2151 -10.2104
-10.2060 -10.2058 -10.1961 -10.1958  -0.9139  -0.8897  -0.8243  -0.8108
 -0.7600  -0.7445  -0.6666  -0.6484  -0.6180  -0.5594  -0.5418  -0.5133
 -0.5028  -0.4737  -0.4665  -0.4424  -0.4292  -0.4149  -0.3967  -0.3888
 -0.3733  -0.3634  -0.3613  -0.3542  -0.3353  -0.3325  -0.2930  -0.2508
 -0.2404

          Ground-State Mulliken Net Atomic Charges

     Atom                 Charge (a.u.)
  ----------------------------------------
      1 C                    -0.347187
      2 C                    -0.113902
      3 C                     0.180829
      4 C                    -0.216166
      5 C                     0.158270
      6 C                     0.217454
      7 N                    -0.471671
      8 C                    -0.202385
      9 C                     0.180441
     10 C                    -0.113295
     11 C                    -0.347581
     12 C                    -0.251041
     13 H                     0.153484
     14 H                     0.147807
     15 H                     0.136922
     16 H                     0.156147
     17 H                     0.155784
     18 H                     0.134050
     19 H                     0.151558
     20 H                     0.153326
     21 H                     0.137154
  ----------------------------------------
  Sum of atomic charges =     0.000000

                    Cartesian Multipole Moments
 -----------------------------------------------------------------
    Charge (ESU x 10^10)
                 0.0000
    Dipole Moment (Debye)
         X       2.9659      Y      -3.5585      Z      -0.0479
       Tot       4.6327
    Quadrupole Moments (Debye-Ang)
        XX     -68.5465     XY      12.2291     YY     -73.5469
        XZ      -0.2241     YZ      -0.2532     ZZ     -72.9415

 Total job time:  24.91s(wall), 24.83s(cpu)
        *  Thank you very much for using Q-Chem.  Have a nice day.  *
