 Q-Chem 5.2, Q-Chem, Inc., Pleasanton, CA (2019)
 Q-Chem 5.2.1 for Intel X86 EM64T Linux

User input:
--------------------------------------------------------------
$molecule
0 1
C         3.45398478140000   -0.97650315050000   -0.00056900110000
C         2.79268558850000    0.17466014220000    0.00064922210000
C         1.33984539960000    0.26242615330000    0.00014844740000
C         0.68698142050000    1.50700959880000   -0.00049056610000
C        -0.68697934750000    1.50701759580000   -0.00048942940000
C        -1.33985713390000    0.26243517750000    0.00013944280000
C        -2.79270459340000    0.17467054110000    0.00068631520000
C        -3.45395337860000   -0.97652160090000   -0.00059673400000
N        -0.64356986110000   -0.87457937930000    0.00029481130000
N         0.64355594840000   -0.87458995380000    0.00030881430000
H         4.52964561500000   -1.01545966310000   -0.00004434490000
H         2.91812820080000   -1.90983123270000   -0.00214591040000
H         3.31609952260000    1.12256957740000    0.00223374800000
H         1.25600886960000    2.42605870210000   -0.00116756510000
H        -1.25598523580000    2.42608160060000   -0.00107815730000
H        -3.31612336350000    1.12257255020000    0.00215811520000
H        -2.91799679280000   -1.90979700700000   -0.00213792940000
H        -4.52961608250000   -1.01557336380000    0.00001772160000
$end

$rem
BASIS = 6-31G*
GUI = 2
METHOD = B3LYP
PRINT_ORBITALS false
MOLDEN_FORMAT false
--------------------------------------------------------------

             Standard Nuclear Orientation (Angstroms)
    I     Atom           X                Y                Z
 ----------------------------------------------------------------
    1      C       3.4539834230    -0.9852696965    -0.0005020914
    2      C       2.7926844857     0.1658938044     0.0006566507
    3      C       1.3398443165     0.2536601125     0.0001510132
    4      C       0.6869806141     1.4982436685    -0.0005522940
    5      C      -0.6869801539     1.4982519710    -0.0005514790
    6      C      -1.3398582170     0.2536697319     0.0001413815
    7      C      -2.7927056962     0.1659054467     0.0006924373
    8      C      -3.4539547370    -0.9852866130    -0.0005314386
    9      N      -0.6435711970    -0.8833449702     0.0003555102
   10      N       0.6435546125    -0.8833558300     0.0003698147
   11      H       4.5296442479    -1.0242264211     0.0000248240
   12      H       2.9181266354    -1.9185977396    -0.0020310259
   13      H       3.3160986302     1.1138032037     0.0021924474
   14      H       1.2560082677     2.4172926093    -0.0012765242
   15      H      -1.2559858377     2.4173160707    -0.0011877049
   16      H      -3.3161242559     1.1138076467     0.0021152637
   17      H      -2.9179983582    -1.9185622164    -0.0020244112
   18      H      -4.5296174497    -1.0243381051     0.0000847781
 ----------------------------------------------------------------

    9    -419.0900174450      1.57e-06  Convergence criterion met
 Total energy in the final basis set =     -419.0900174450

                    Orbital Energies (a.u.)
 --------------------------------------------------------------

 Alpha MOs
 -- Occupied --
-14.3579 -14.3576 -10.2319 -10.2319 -10.2155 -10.2149 -10.1942 -10.1942
-10.1847 -10.1847  -1.0292  -0.8534  -0.8322  -0.7795  -0.7457  -0.6715
 -0.6605  -0.5911  -0.5770  -0.5276  -0.4935  -0.4788  -0.4546  -0.4482
 -0.4380  -0.4148  -0.4027  -0.3721  -0.3681  -0.3420  -0.3170  -0.3111
 -0.2784  -0.2285  -0.2174

          Ground-State Mulliken Net Atomic Charges

     Atom                 Charge (a.u.)
  ----------------------------------------
      1 C                    -0.327760
      2 C                    -0.112289
      3 C                     0.328041
      4 C                    -0.155508
      5 C                    -0.155512
      6 C                     0.328043
      7 C                    -0.112287
      8 C                    -0.327764
      9 N                    -0.334583
     10 N                    -0.334583
     11 H                     0.145302
     12 H                     0.181278
     13 H                     0.128218
     14 H                     0.147300
     15 H                     0.147300
     16 H                     0.128219
     17 H                     0.181282
     18 H                     0.145304
  ----------------------------------------
  Sum of atomic charges =     0.000000

                    Cartesian Multipole Moments
 -----------------------------------------------------------------
    Charge (ESU x 10^10)
                 0.0000
    Dipole Moment (Debye)
         X       0.0000      Y       3.1372      Z      -0.0014
       Tot       3.1372
    Quadrupole Moments (Debye-Ang)
        XX     -48.1615     XY      -0.0000     YY     -54.6781
        XZ      -0.0002     YZ       0.0062     ZZ     -60.7744

 Total job time:  17.03s(wall), 16.68s(cpu)
        *  Thank you very much for using Q-Chem.  Have a nice day.  *
