 Q-Chem 5.2, Q-Chem, Inc., Pleasanton, CA (2019)
 Q-Chem 5.2.1 for Intel X86 EM64T Linux

User input:
--------------------------------------------------------------
$molecule
0 1
C        -1.89680320960000   -3.23579150140000    0.43597943570000
C        -0.94787288400000   -2.59557917910000   -0.23177724260000
C        -0.60983847730000   -1.17940725810000   -0.08114120030000
C        -1.60029625780000   -0.20526414120000    0.01665270980000
O        -2.89466515190000   -0.63149938470000    0.01238088210000
C        -3.93272445860000    0.31468186250000   -0.04684069660000
C        -1.24680671490000    1.14819950630000    0.08155607670000
C         0.06108306070000    1.59316059450000    0.05441645190000
C         0.27644074510000    3.03097687330000    0.11206698130000
C         1.42958822660000    3.68779691280000    0.04397037450000
C         1.09776471560000    0.61797041080000   -0.02401693600000
N         2.38242959700000    1.01532216520000   -0.03061404480000
C         3.33602964700000    0.12991516340000   -0.07938651080000
C         3.10672570620000   -1.25345651620000   -0.10853998580000
C         1.81159017260000   -1.69242487880000   -0.10415859170000
C         0.74615585780000   -0.76371242020000   -0.08174380100000
H        -2.10018532700000   -4.27884883180000    0.26007897970000
H        -2.49530639240000   -2.74800399270000    1.18442391980000
H        -0.35731193160000   -3.13548237490000   -0.96245613790000
H        -4.85055566510000   -0.26767971560000   -0.11754013300000
H        -3.84696252570000    0.95844699630000   -0.92821097080000
H        -3.97120306900000    0.93351954100000    0.85602429780000
H        -2.02822407040000    1.89030856750000    0.14888634510000
H        -0.64147302070000    3.60095416640000    0.21581165260000
H         2.36490130480000    3.17084023940000   -0.06102353600000
H         1.45305172610000    4.76410094860000    0.09578964230000
H         4.34532835110000    0.52327297620000   -0.08485435280000
H         3.93553981910000   -1.94455648870000   -0.12325691890000
H         1.59705805170000   -2.75058527610000   -0.10028865580000
$end

$rem
BASIS = 6-31G*
GUI = 2
METHOD = B3LYP
PRINT_ORBITALS false
MOLDEN_FORMAT false
--------------------------------------------------------------

             Standard Nuclear Orientation (Angstroms)
    I     Atom           X                Y                Z
 ----------------------------------------------------------------
    1      C      -3.1283915934    -2.0504562810     0.4189376993
    2      C      -1.9814021773    -1.9162998331    -0.2311829731
    3      C      -1.0473025640    -0.7987870653    -0.0858402286
    4      C      -1.4977306486     0.5174844742    -0.0220526828
    5      O      -2.8455504486     0.7160382920    -0.0543595478
    6      C      -3.3482467283     2.0255335108    -0.1484445849
    7      C      -0.5763873993     1.5703292018     0.0385752449
    8      C       0.7924709427     1.3818396633     0.0396372562
    9      C       1.6282881183     2.5718033175     0.0887729661
   10      C       2.9545199534     2.6411845371     0.0430106223
   11      C       1.2833973151     0.0443139532    -0.0036387892
   12      N       2.6097939668    -0.1759276772     0.0178400988
   13      C       3.0661704091    -1.3954045776     0.0012871514
   14      C       2.2417784336    -2.5298922247    -0.0202320417
   15      C       0.8874122375    -2.3422065151    -0.0437852086
   16      C       0.3509600164    -1.0344566046    -0.0567743965
   17      H      -3.7744766227    -2.8952399223     0.2480910285
   18      H      -3.4581002335    -1.3316279646     1.1475596339
   19      H      -1.6824658326    -2.6778072449    -0.9417411135
   20      H      -4.4283070789     1.9145915918    -0.2363028302
   21      H      -2.9673240043     2.5451994165    -1.0335702493
   22      H      -3.1214495479     2.6137618856     0.7471871988
   23      H      -0.9434228514     2.5849700156     0.0793343320
   24      H       1.0614621875     3.4944200708     0.1642013664
   25      H       3.5606808522     1.7581465867    -0.0337449677
   26      H       3.4569169116     3.5938112228     0.0850325681
   27      H       4.1446412166    -1.4958781689     0.0170958579
   28      H       2.6730950479    -3.5191231312    -0.0077106296
   29      H       0.2213778845    -3.1919502927    -0.0350567127
 ----------------------------------------------------------------

    9    -671.2385380880      3.48e-06  Convergence criterion met
 Total energy in the final basis set =     -671.2385380880

                    Orbital Energies (a.u.)
 --------------------------------------------------------------

 Alpha MOs
 -- Occupied --
-19.1811 -14.3197 -10.2511 -10.2435 -10.2169 -10.2164 -10.2003 -10.1997
-10.1975 -10.1932 -10.1926 -10.1909 -10.1855 -10.1793 -10.1745 -10.1623
 -1.0725  -0.9465  -0.8572  -0.8201  -0.7858  -0.7608  -0.7557  -0.7252
 -0.6970  -0.6454  -0.6309  -0.6166  -0.5714  -0.5569  -0.5361  -0.5181
 -0.5045  -0.4815  -0.4761  -0.4655  -0.4579  -0.4441  -0.4272  -0.4235
 -0.4125  -0.4013  -0.3983  -0.3903  -0.3716  -0.3653  -0.3594  -0.3478
 -0.3280  -0.3227  -0.3050  -0.2722  -0.2585  -0.2405  -0.2363  -0.1961

          Ground-State Mulliken Net Atomic Charges

     Atom                 Charge (a.u.)
  ----------------------------------------
      1 C                    -0.314909
      2 C                    -0.130304
      3 C                     0.020448
      4 C                     0.337493
      5 O                    -0.506743
      6 C                    -0.216460
      7 C                    -0.316148
      8 C                     0.205572
      9 C                    -0.128644
     10 C                    -0.340309
     11 C                     0.186220
     12 N                    -0.518439
     13 C                     0.049093
     14 C                    -0.159984
     15 C                    -0.148909
     16 C                     0.103501
     17 H                     0.136144
     18 H                     0.152401
     19 H                     0.135009
     20 H                     0.171309
     21 H                     0.154150
     22 H                     0.152680
     23 H                     0.134574
     24 H                     0.115054
     25 H                     0.187801
     26 H                     0.127305
     27 H                     0.134162
     28 H                     0.135235
     29 H                     0.142698
  ----------------------------------------
  Sum of atomic charges =     0.000000

                    Cartesian Multipole Moments
 -----------------------------------------------------------------
    Charge (ESU x 10^10)
                 0.0000
    Dipole Moment (Debye)
         X      -1.7135      Y      -0.0400      Z      -0.1459
       Tot       1.7202
    Quadrupole Moments (Debye-Ang)
        XX     -86.6034     XY      -8.9074     YY     -79.8877
        XZ      -0.5460     YZ       0.8654     ZZ     -95.8376

 Total job time:  55.27s(wall), 55.10s(cpu)
        *  Thank you very much for using Q-Chem.  Have a nice day.  *
