 Q-Chem 5.2, Q-Chem, Inc., Pleasanton, CA (2019)
 Q-Chem 5.2.1 for Intel X86 EM64T Linux

User input:
--------------------------------------------------------------
$molecule
0 1
C        -3.52310603920000   -0.90558139260000    0.00338812640000
C        -2.26809265470000   -0.95222423210000   -0.42382133920000
C        -1.27550297580000    0.09359513090000   -0.17241739530000
C        -1.64646190560000    1.43972999840000   -0.13257694110000
N        -0.79823376760000    2.42539014850000    0.08066745240000
C         0.47952044530000    2.14182527040000    0.22622190160000
C         1.00708532630000    0.84771691720000    0.15234948430000
C         2.43579208160000    0.59856029460000    0.30574778880000
C         3.38274346920000    1.46592841850000   -0.02777883550000
C         0.08927975470000   -0.19774513160000   -0.02486661340000
C         0.56907741410000   -1.61593380430000   -0.07259558410000
O         1.45322757300000   -2.00017893770000   -0.78276899660000
O        -0.06107950720000   -2.46201638490000    0.76773642180000
H        -4.22251275890000   -1.69177939400000   -0.22140975650000
H        -3.89387279950000   -0.09003106430000    0.60187739170000
H        -1.92449120090000   -1.80063160380000   -1.00288657990000
H        -2.67584966420000    1.72962718600000   -0.29138720930000
H         1.12486013140000    2.98608318060000    0.42405251380000
H         2.71110706380000   -0.37381079190000    0.68962863670000
H         3.15933452030000    2.42602215370000   -0.46178053110000
H         4.42477758900000    1.23074421380000    0.10048354480000
H        -0.77566712500000   -2.03681775800000    1.26138240960000
$end

$rem
BASIS = 6-31G*
GUI = 2
METHOD = B3LYP
PRINT_ORBITALS false
MOLDEN_FORMAT false
--------------------------------------------------------------

             Standard Nuclear Orientation (Angstroms)
    I     Atom           X                Y                Z
 ----------------------------------------------------------------
    1      C      -3.6097537314     0.3785844732     0.0595640991
    2      C      -2.4596396478    -0.1118720844    -0.3836424407
    3      C      -1.1578738022     0.5195925771    -0.1626573320
    4      C      -1.0301269143     1.9104318239    -0.1397708026
    5      N       0.1146664881     2.5360788399     0.0459815975
    6      C       1.2130959758     1.8219226714     0.1789650319
    7      C       1.2495930360     0.4242163827     0.1191038368
    8      C       2.5015374120    -0.3108608590     0.2573419759
    9      C       3.6870356719     0.1635496482    -0.1029536644
   10      C       0.0192894271    -0.2324910585    -0.0287199590
   11      C      -0.0321362847    -1.7291986329    -0.0597810750
   12      O       0.6468563794    -2.4078419385    -0.7754096992
   13      O      -0.9044232472    -2.2900145803     0.8026064753
   14      H      -4.5452459592    -0.1129831367    -0.1429864425
   15      H      -3.6584837353     1.2787208171     0.6496146718
   16      H      -2.4475466266    -1.0329768634    -0.9533733644
   17      H      -1.8941628602     2.5428396697    -0.2894452460
   18      H       2.1179519393     2.3865932612     0.3543346156
   19      H       2.4236972083    -1.3137783157     0.6532786530
   20      H       3.8082044413     1.1361575687    -0.5494970251
   21      H       4.5816171782    -0.4224373814     0.0151187069
   22      H      -1.4142889142    -1.6350849994     1.2988120201
 ----------------------------------------------------------------

    9    -591.6335278585      6.89e-06  Convergence criterion met
 Total energy in the final basis set =     -591.6335278585

                    Orbital Energies (a.u.)
 --------------------------------------------------------------

 Alpha MOs
 -- Occupied --
-19.2050 -19.1463 -14.3417 -10.3315 -10.2336 -10.2323 -10.2311 -10.2263
-10.2232 -10.2159 -10.2065 -10.2017 -10.1921  -1.1152  -1.0339  -0.9654
 -0.8534  -0.8304  -0.7767  -0.7462  -0.6772  -0.6706  -0.6289  -0.6110
 -0.5682  -0.5649  -0.5238  -0.4904  -0.4751  -0.4739  -0.4628  -0.4486
 -0.4472  -0.4350  -0.4174  -0.3957  -0.3943  -0.3845  -0.3679  -0.3384
 -0.3272  -0.3199  -0.2870  -0.2696  -0.2615  -0.2433

          Ground-State Mulliken Net Atomic Charges

     Atom                 Charge (a.u.)
  ----------------------------------------
      1 C                    -0.334580
      2 C                    -0.173326
      3 C                     0.085020
      4 C                    -0.008736
      5 N                    -0.396634
      6 C                    -0.011464
      7 C                     0.104421
      8 C                    -0.106746
      9 C                    -0.339128
     10 C                    -0.026624
     11 C                     0.519498
     12 O                    -0.422771
     13 O                    -0.562764
     14 H                     0.160379
     15 H                     0.157758
     16 H                     0.171374
     17 H                     0.148963
     18 H                     0.150602
     19 H                     0.157096
     20 H                     0.151395
     21 H                     0.155046
     22 H                     0.421221
  ----------------------------------------
  Sum of atomic charges =     0.000000

                    Cartesian Multipole Moments
 -----------------------------------------------------------------
    Charge (ESU x 10^10)
                 0.0000
    Dipole Moment (Debye)
         X      -1.6311      Y       1.3304      Z       1.6313
       Tot       2.6630
    Quadrupole Moments (Debye-Ang)
        XX     -60.4869     XY       1.7772     YY     -88.4058
        XZ       0.0394     YZ      -2.9658     ZZ     -74.9578

 Total job time:  32.04s(wall), 31.93s(cpu)
        *  Thank you very much for using Q-Chem.  Have a nice day.  *
