 Q-Chem 5.2, Q-Chem, Inc., Pleasanton, CA (2019)
 Q-Chem 5.2.1 for Intel X86 EM64T Linux

User input:
--------------------------------------------------------------
$molecule
0 1
C         3.54869701730000    1.03170822570000    0.00172528020000
C         2.86358003140000   -0.10856106000000   -0.00248789380000
C         1.43099012200000   -0.20966309300000   -0.00141055390000
C         0.68179715290000   -1.35888775200000   -0.00246748530000
C        -0.71025192620000   -1.15417934090000   -0.00075836060000
C        -1.67583250310000   -2.29354779630000    0.00015081610000
C        -1.04010915960000    0.18636535910000    0.00129157120000
C        -2.29881254870000    0.88208890680000    0.00345201330000
C        -3.52637875280000    0.36568371450000   -0.00458590740000
S         0.39415386310000    1.17970660910000    0.00216251930000
H         4.62401393930000    1.04660734000000    0.00084840200000
H         3.04776731570000    1.98581624510000    0.00570600760000
H         3.38160042270000   -1.05965363750000   -0.00695392890000
H         1.12861818800000   -2.33870989890000   -0.00427086920000
H        -1.13416817560000   -3.23654137290000    0.00660101180000
H        -2.30775829300000   -2.26372840330000   -0.88680834580000
H        -2.31544494740000   -2.25561819630000    0.88121755480000
H        -2.19265379880000    1.96068685990000    0.01202965600000
H        -3.72647837760000   -0.68860943850000   -0.01458151220000
H        -4.38756445750000    1.01164063550000   -0.00191192440000
$end

$rem
BASIS = 6-31G*
GUI = 2
METHOD = B3LYP
PRINT_ORBITALS false
MOLDEN_FORMAT false
--------------------------------------------------------------

             Standard Nuclear Orientation (Angstroms)
    I     Atom           X                Y                Z
 ----------------------------------------------------------------
    1      C       3.6955591520    -0.4991996766    -0.0004033774
    2      C       2.8413542823     0.5205763606     0.0024168609
    3      C       1.4104825845     0.3975263902     0.0011842465
    4      C       0.4915893848     1.4161743691     0.0008359454
    5      C      -0.8516493633     0.9973468074    -0.0006581972
    6      C      -1.9827603126     1.9725851629    -0.0029657133
    7      C      -0.9688920525    -0.3781981932    -0.0010968348
    8      C      -2.1040045831    -1.2613107943    -0.0024462234
    9      C      -3.3969753189    -0.9422029097     0.0049396163
   10      S       0.6024701687    -1.1362606278    -0.0007349402
   11      H       4.7600961053    -0.3465908160     0.0005163968
   12      H       3.3491964986    -1.5196375096    -0.0032434580
   13      H       3.2050685653     1.5406954701     0.0057462863
   14      H       0.7805016539     2.4535908875     0.0014663769
   15      H      -1.5944275437     2.9883700772    -0.0105421822
   16      H      -2.6025356762     1.8458526689     0.8840141786
   17      H      -2.6084940135     1.8345423615    -0.8840008159
   18      H      -1.8313012846    -2.3102611368    -0.0097188139
   19      H      -3.7586935587     0.0681226520     0.0136573444
   20      H      -4.1471560848    -1.7142997092     0.0030257919
 ----------------------------------------------------------------

    9    -747.1206619398      3.24e-06  Convergence criterion met
 Total energy in the final basis set =     -747.1206619398

                    Orbital Energies (a.u.)
 --------------------------------------------------------------

 Alpha MOs
 -- Occupied --
-88.8993 -10.2154 -10.2142 -10.1976 -10.1969 -10.1956 -10.1871 -10.1858
-10.1805 -10.1801  -7.9614  -5.9253  -5.9218  -5.9183  -0.8890  -0.8068
 -0.7773  -0.7584  -0.7134  -0.6726  -0.6217  -0.5882  -0.5348  -0.5182
 -0.4921  -0.4579  -0.4436  -0.4304  -0.4216  -0.4155  -0.3973  -0.3799
 -0.3710  -0.3589  -0.3457  -0.3320  -0.3188  -0.2695  -0.2458  -0.1963

          Ground-State Mulliken Net Atomic Charges

     Atom                 Charge (a.u.)
  ----------------------------------------
      1 C                    -0.374756
      2 C                    -0.055238
      3 C                    -0.135486
      4 C                    -0.180501
      5 C                     0.183718
      6 C                    -0.535520
      7 C                    -0.186002
      8 C                    -0.087334
      9 C                    -0.356271
     10 S                     0.233525
     11 H                     0.146208
     12 H                     0.155430
     13 H                     0.136919
     14 H                     0.132045
     15 H                     0.156011
     16 H                     0.170130
     17 H                     0.170203
     18 H                     0.135540
     19 H                     0.146879
     20 H                     0.144500
  ----------------------------------------
  Sum of atomic charges =     0.000000

                    Cartesian Multipole Moments
 -----------------------------------------------------------------
    Charge (ESU x 10^10)
                -0.0000
    Dipole Moment (Debye)
         X      -0.3440      Y       1.0187      Z      -0.0001
       Tot       1.0752
    Quadrupole Moments (Debye-Ang)
        XX     -60.3529     XY       0.6851     YY     -61.0826
        XZ      -0.0027     YZ       0.0270     ZZ     -71.0312

 Total job time:  23.23s(wall), 23.14s(cpu)
        *  Thank you very much for using Q-Chem.  Have a nice day.  *
