 Q-Chem 5.2, Q-Chem, Inc., Pleasanton, CA (2019)
 Q-Chem 5.2.1 for Intel X86 EM64T Linux

User input:
--------------------------------------------------------------
$molecule
0 1
C         3.81809822710000    1.16418241250000   -0.34565525970000
C         3.21851806580000    0.04775607580000    0.05065509810000
C         1.78554023870000   -0.21564565970000    0.07212486010000
C         1.33541942540000   -1.49020075490000    0.41810419550000
C        -0.01302657850000   -1.77441552730000    0.44465883770000
C        -0.96217945220000   -0.80958554390000    0.11560590130000
C        -2.38029688730000   -1.20438801010000    0.14815607910000
C        -3.19310504370000   -1.19423897560000   -0.89508991500000
C        -0.53017369090000    0.47942458220000   -0.21587173050000
C        -1.50306882670000    1.60121388210000   -0.45891556850000
C        -2.00742783490000    2.15811565540000    0.87357309130000
C         0.82807694850000    0.75226616170000   -0.22669629190000
H         4.89024364190000    1.26052865390000   -0.32702748670000
H         3.27637520790000    2.02159022350000   -0.70654910230000
H         3.82960701960000   -0.77957997820000    0.39227446090000
H         2.05144577470000   -2.26065427900000    0.66757076800000
H        -0.34815496090000   -2.76701043320000    0.71221278460000
H        -2.73057168950000   -1.58195410680000    1.10243437260000
H        -2.86448851130000   -0.86972676580000   -1.86907091550000
H        -4.21542882290000   -1.52572471950000   -0.82287741310000
H        -2.35505020570000    1.25477046050000   -1.04222033090000
H        -1.00782912590000    2.39738081170000   -1.01821881770000
H        -2.53648140260000    1.38538142940000    1.42683952340000
H        -2.68688319950000    2.99070334360000    0.70573398870000
H        -1.17367700300000    2.50550340860000    1.48014127040000
H         1.14735402090000    1.75461306030000   -0.47064355180000
$end

$rem
BASIS = 6-31G*
GUI = 2
METHOD = B3LYP
PRINT_ORBITALS false
MOLDEN_FORMAT false
--------------------------------------------------------------

             Standard Nuclear Orientation (Angstroms)
    I     Atom           X                Y                Z
 ----------------------------------------------------------------
    1      C       3.9181688554    -0.8320585556     0.3762373777
    2      C       3.2371995081     0.2413991786    -0.0070839964
    3      C       1.7882791485     0.3918927002    -0.0424162658
    4      C       1.2432641477     1.6337074559    -0.3705258500
    5      C      -0.1229718410     1.8116795538    -0.4094484253
    6      C      -0.9969791120     0.7690863428    -0.1108272669
    7      C      -2.4413014888     1.0519329661    -0.1546019265
    8      C      -3.2628262476     0.9576345011     0.8775449508
    9      C      -0.4687157501    -0.4882743729     0.2022787124
   10      C      -1.3530373755    -1.6874949509     0.4116868166
   11      C      -1.7965132958    -2.2561118138    -0.9374045792
   12      C       0.9065808340    -0.6538335856     0.2258148740
   13      H       4.9947151835    -0.8435794983     0.3698613365
   14      H       3.4414744252    -1.7362274189     0.7140204980
   15      H       3.7851837468     1.1206621470    -0.3252480284
   16      H       1.8992626376     2.4627089174    -0.5962435820
   17      H      -0.5320724357     2.7799500041    -0.6628844784
   18      H      -2.8091260264     1.4194232003    -1.1062067254
   19      H      -2.9209960383     0.6409394257     1.8495492339
   20      H      -4.3071658847     1.2092102711     0.7981238735
   21      H      -2.2363504342    -1.4204538862     0.9901216619
   22      H      -0.8031774607    -2.4531172791     0.9625414165
   23      H      -2.3783052454    -1.5166172371    -1.4831018440
   24      H      -2.4102194459    -3.1425782116    -0.7939685231
   25      H      -0.9310289935    -2.5250702152    -1.5393530467
   26      H       1.3009216747    -1.6326067382     0.4552616801
 ----------------------------------------------------------------

    8    -465.6684546907      4.92e-06  Convergence criterion met
 Total energy in the final basis set =     -465.6684546907

                    Orbital Energies (a.u.)
 --------------------------------------------------------------

 Alpha MOs
 -- Occupied --
-10.1899 -10.1892 -10.1892 -10.1883 -10.1867 -10.1821 -10.1811 -10.1804
-10.1789 -10.1784 -10.1762 -10.1694  -0.8665  -0.8084  -0.7812  -0.7645
 -0.7234  -0.7112  -0.6341  -0.6269  -0.5869  -0.5658  -0.5457  -0.4992
 -0.4765  -0.4686  -0.4447  -0.4410  -0.4291  -0.4176  -0.4107  -0.3898
 -0.3847  -0.3661  -0.3579  -0.3545  -0.3467  -0.3303  -0.3224  -0.2968
 -0.2645  -0.2415  -0.2132

          Ground-State Mulliken Net Atomic Charges

     Atom                 Charge (a.u.)
  ----------------------------------------
      1 C                    -0.351825
      2 C                    -0.117597
      3 C                     0.193665
      4 C                    -0.201247
      5 C                    -0.171584
      6 C                     0.072789
      7 C                    -0.152258
      8 C                    -0.318943
      9 C                     0.140502
     10 C                    -0.337191
     11 C                    -0.437680
     12 C                    -0.260346
     13 H                     0.142425
     14 H                     0.141952
     15 H                     0.125234
     16 H                     0.124867
     17 H                     0.125958
     18 H                     0.141764
     19 H                     0.147970
     20 H                     0.142703
     21 H                     0.148923
     22 H                     0.137951
     23 H                     0.151530
     24 H                     0.142294
     25 H                     0.149041
     26 H                     0.119104
  ----------------------------------------
  Sum of atomic charges =     0.000000

                    Cartesian Multipole Moments
 -----------------------------------------------------------------
    Charge (ESU x 10^10)
                 0.0000
    Dipole Moment (Debye)
         X      -0.4313      Y      -0.0140      Z      -0.0728
       Tot       0.4376
    Quadrupole Moments (Debye-Ang)
        XX     -66.9742     XY      -0.3948     YY     -68.6708
        XZ      -0.3615     YZ      -2.9734     ZZ     -73.9859

 Total job time:  29.68s(wall), 29.57s(cpu)
        *  Thank you very much for using Q-Chem.  Have a nice day.  *
