 Q-Chem 5.2, Q-Chem, Inc., Pleasanton, CA (2019)
 Q-Chem 5.2.1 for Intel X86 EM64T Linux

User input:
--------------------------------------------------------------
$molecule
0 1
C        -3.75770992950000   -0.79716554010000    0.29645083180000
C        -2.96983569550000    0.23081995860000    0.00744920250000
C        -1.51512641390000    0.20562300930000   -0.05500620420000
C        -0.73327830850000   -0.95000681540000    0.06461335340000
C         0.64350505260000   -0.84105895100000    0.01117624530000
C         1.49720091830000   -2.06641489840000    0.07189255690000
C         1.15523402870000    0.46509008400000   -0.15234924340000
C         2.56942014430000    0.82769434370000   -0.19682025890000
C         3.55400309860000    0.26727175900000    0.49260761430000
N         0.33986928280000    1.50507158160000   -0.32389512840000
N        -0.94085443860000    1.38897199780000   -0.27489513340000
H        -4.82816978460000   -0.68919974920000    0.32678000700000
H        -3.37837578560000   -1.78089730840000    0.51781417160000
H        -3.38825149340000    1.20651114070000   -0.19740053800000
H        -1.19552438430000   -1.92023914340000    0.17311866480000
H         0.94092575360000   -2.92734786770000   -0.29506796980000
H         1.78877581890000   -2.27266890930000    1.10175933780000
H         2.39944108300000   -1.94106434690000   -0.52212468860000
H         2.76517497130000    1.69393781540000   -0.81458419320000
H         3.40137530670000   -0.54882635370000    1.17687343680000
H         4.56237977730000    0.63827673110000    0.41889807990000
$end

$rem
BASIS = 6-31G*
GUI = 2
METHOD = B3LYP
PRINT_ORBITALS false
MOLDEN_FORMAT false
--------------------------------------------------------------

             Standard Nuclear Orientation (Angstroms)
    I     Atom           X                Y                Z
 ----------------------------------------------------------------
    1      C       3.8032441945    -0.6213978170    -0.2222159259
    2      C       2.9748363281     0.4038530310    -0.0685180358
    3      C       1.5228151142     0.3285960740     0.0132465209
    4      C       0.7891608814    -0.8632051466     0.0626115632
    5      C      -0.5906458548    -0.8037976772     0.1161065019
    6      C      -1.3928472712    -2.0593864803     0.2342163853
    7      C      -1.1554521015     0.4906068387     0.1041363281
    8      C      -2.5832525783     0.7982835097     0.1142731283
    9      C      -3.5474701753     0.1086935975    -0.4803175194
   10      N      -0.3831987442     1.5764817210     0.1217336832
   11      N       0.9009563753     1.5067170706     0.0747029900
   12      H       4.8680859873    -0.4753680480    -0.2792074626
   13      H       3.4640113113    -1.6408135374    -0.3018209053
   14      H       3.3533588196     1.4146171908    -0.0046039087
   15      H       1.2908338121    -1.8195978871     0.0834155061
   16      H      -0.7991174623    -2.8382202726     0.7098323045
   17      H      -1.6813435352    -2.4173701021    -0.7541154710
   18      H      -2.2961820523    -1.8899535255     0.8154954153
   19      H      -2.8114785058     1.7328112640     0.6091476431
   20      H      -3.3647965029    -0.7871302261    -1.0474692581
   21      H      -4.5700065122     0.4451580239    -0.4469642552
 ----------------------------------------------------------------

    9    -458.4038761628      1.68e-06  Convergence criterion met
 Total energy in the final basis set =     -458.4038761628

                    Orbital Energies (a.u.)
 --------------------------------------------------------------

 Alpha MOs
 -- Occupied --
-14.3538 -14.3526 -10.2305 -10.2303 -10.2230 -10.2101 -10.1971 -10.1968
-10.1953 -10.1918 -10.1916  -1.0261  -0.8539  -0.8419  -0.7846  -0.7566
 -0.7286  -0.6707  -0.6315  -0.5896  -0.5680  -0.5350  -0.5001  -0.4801
 -0.4548  -0.4386  -0.4366  -0.4259  -0.4185  -0.4143  -0.4071  -0.3663
 -0.3643  -0.3339  -0.3111  -0.2980  -0.2773  -0.2357  -0.2153

          Ground-State Mulliken Net Atomic Charges

     Atom                 Charge (a.u.)
  ----------------------------------------
      1 C                    -0.348476
      2 C                    -0.085324
      3 C                     0.314051
      4 C                    -0.206124
      5 C                     0.160859
      6 C                    -0.540233
      7 C                     0.231226
      8 C                    -0.091869
      9 C                    -0.342003
     10 N                    -0.321266
     11 N                    -0.334348
     12 H                     0.154268
     13 H                     0.142923
     14 H                     0.153565
     15 H                     0.137099
     16 H                     0.162676
     17 H                     0.174818
     18 H                     0.179295
     19 H                     0.157492
     20 H                     0.148266
     21 H                     0.153103
  ----------------------------------------
  Sum of atomic charges =     0.000000

                    Cartesian Multipole Moments
 -----------------------------------------------------------------
    Charge (ESU x 10^10)
                 0.0000
    Dipole Moment (Debye)
         X      -0.5712      Y      -3.9765      Z      -0.1267
       Tot       4.0193
    Quadrupole Moments (Debye-Ang)
        XX     -54.6758     XY      -1.2707     YY     -67.2757
        XZ      -0.0310     YZ       0.7820     ZZ     -66.0445

 Total job time:  23.54s(wall), 23.45s(cpu)
        *  Thank you very much for using Q-Chem.  Have a nice day.  *
