 Q-Chem 5.4, Q-Chem, Inc., Pleasanton, CA (2021)
 Q-Chem 5.4.2 for Intel X86 EM64T Linux

User input:
--------------------------------------------------------------
$molecule
0 1
C           -1.98574819860000        3.97823014790000        0.22856353960000
C           -2.48455493520000        2.75528445130000        0.09599478970000
C           -1.73829507890000        1.50190704310000        0.09625429070000
C           -2.42623967100000        0.31101043260000       -0.14833922030000
C           -1.78803627450000       -0.91705027610000       -0.14916083710000
C           -2.51862390290000       -2.20122680890000       -0.38563305910000
C           -0.41782569980000       -0.93469716190000        0.08788092130000
F            0.20148130330000       -2.13220518740000        0.14309208110000
C            0.31589003480000        0.22691666570000        0.31688775690000
C            1.75754808520000        0.21458785670000        0.55964145160000
C            2.64149411510000       -0.55985008460000       -0.04817090550000
F            2.41797369300000       -1.43168785350000       -1.01604762610000
F            3.94634920690000       -0.51760889700000        0.21200759410000
C           -0.36917411920000        1.43781319380000        0.33507587520000
H           -2.62378251420000        4.84485205570000        0.21307112700000
H           -0.93442093090000        4.17197688030000        0.35280139210000
H           -3.55314507450000        2.63810192490000       -0.03485883330000
H           -3.49010257370000        0.34519014270000       -0.33429284250000
H           -3.57318641410000       -2.01838161940000       -0.57072200080000
H           -2.41745060960000       -2.85546508090000        0.47946668780000
H           -2.09156246360000       -2.72356377250000       -1.24060075050000
H            2.14488973440000        0.92101916470000        1.27801367210000
H            0.19007782810000        2.33869586460000        0.52994561240000
$end

$rem
BASIS = 6-31G*
GUI = 2
METHOD = B3LYP
PRINT_ORBITALS false
MOLDEN_FORMAT false
$end
--------------------------------------------------------------

             Standard Nuclear Orientation (Angstroms)
    I     Atom           X                Y                Z
 ----------------------------------------------------------------
    1      C       3.6261466546    -2.4001100793    -0.1748972052
    2      C       3.4228798475    -1.0887344817    -0.1439867249
    3      C       2.1397835657    -0.4054988093    -0.0226948650
    4      C       2.1118856857     0.9889867799    -0.0998967712
    5      C       0.9344468908     1.7062044176     0.0212399248
    6      C       0.8955313962     3.2008851605    -0.0353447288
    7      C      -0.2430863607     0.9905660896     0.2090016136
    8      F      -1.3869742248     1.6847732651     0.3828172035
    9      C      -0.2699402766    -0.4006101868     0.2725392376
   10      C      -1.5058724638    -1.1580717133     0.4627574146
   11      C      -2.6795478887    -0.8797457202    -0.0809071959
   12      F      -2.9637769378     0.0921311744    -0.9303287461
   13      F      -3.7696048886    -1.6155845338     0.1251048367
   14      C       0.9394150889    -1.0812990733     0.1723576823
   15      H       4.6175696499    -2.8081342471    -0.2695442162
   16      H       2.8272585294    -3.1185440592    -0.1125093536
   17      H       4.2756516722    -0.4257614160    -0.2213574573
   18      H       3.0365961256     1.5274413225    -0.2499920274
   19      H       1.8885402858     3.6080621645    -0.2024752233
   20      H       0.4989278862     3.6016241735     0.8967363961
   21      H       0.2357746695     3.5286323671    -0.8375229882
   22      H      -1.4544578596    -2.0433573968     1.0781948121
   23      H       0.9274906634    -2.1572763624     0.2391201195
 ----------------------------------------------------------------

    9    -724.0647929422      3.73e-06  Convergence criterion met
 Total energy in the final basis set =     -724.0647929422

                    Orbital Energies (a.u.)
 --------------------------------------------------------------

 Alpha MOs
 -- Occupied --
-24.7380 -24.7330 -24.7091 -10.3567 -10.2691 -10.2119 -10.2032 -10.2030
-10.1986 -10.1946 -10.1932 -10.1931 -10.1865 -10.1819  -1.2832  -1.2237
 -1.2191  -0.8789  -0.8184  -0.8019  -0.7599  -0.7299  -0.6968  -0.6480
 -0.6270  -0.6080  -0.5708  -0.5640  -0.5463  -0.5202  -0.5158  -0.4995
 -0.4755  -0.4657  -0.4446  -0.4397  -0.4368  -0.4325  -0.4224  -0.4177
 -0.4093  -0.4083  -0.4001  -0.3759  -0.3693  -0.3537  -0.3439  -0.3077
 -0.2773  -0.2343  -0.2191

          Ground-State Mulliken Net Atomic Charges

     Atom                 Charge (a.u.)
  ----------------------------------------
      1 C                    -0.353951
      2 C                    -0.115009
      3 C                     0.193476
      4 C                    -0.260405
      5 C                     0.108420
      6 C                    -0.521865
      7 C                     0.259998
      8 F                    -0.287191
      9 C                     0.113834
     10 C                    -0.319132
     11 C                     0.569240
     12 F                    -0.229352
     13 F                    -0.247584
     14 C                    -0.254920
     15 H                     0.145161
     16 H                     0.142473
     17 H                     0.127674
     18 H                     0.127228
     19 H                     0.155861
     20 H                     0.172631
     21 H                     0.173220
     22 H                     0.168972
     23 H                     0.131221
  ----------------------------------------
  Sum of atomic charges =     0.000000

                    Cartesian Multipole Moments
 -----------------------------------------------------------------
    Charge (ESU x 10^10)
                 0.0000
    Dipole Moment (Debye)
         X       1.7980      Y      -0.1357      Z       0.2268
       Tot       1.8173
    Quadrupole Moments (Debye-Ang)
        XX     -78.3395     XY       1.9156     YY     -71.6593
        XZ      -1.1686     YZ      -1.2362     ZZ     -80.2366

 Total job time:  61.15s(wall), 55.08s(cpu)
        *  Thank you very much for using Q-Chem.  Have a nice day.  *
