 Q-Chem 5.4, Q-Chem, Inc., Pleasanton, CA (2021)
 Q-Chem 5.4.2 for Intel X86 EM64T Linux

User input:
--------------------------------------------------------------
$molecule
0 1
C           -1.98022032700000        3.97851152820000        0.21473380500000
C           -2.48405488790000        2.75490150460000        0.11089126170000
C           -1.73854150070000        1.50103463630000        0.10570420660000
C           -2.42687789320000        0.31139721180000       -0.14367606660000
C           -1.78862396870000       -0.91662114840000       -0.15129908140000
C           -2.51941003770000       -2.19960473790000       -0.39356383990000
C           -0.41832578950000       -0.93545851100000        0.08519885740000
F            0.20110090280000       -2.13321216610000        0.13380300270000
C            0.31534632010000        0.22483806500000        0.32079081860000
C            1.75679124050000        0.21072909980000        0.56502374520000
C            2.64107041660000       -0.55943584700000       -0.04766122260000
F            2.41788224640000       -1.42386850170000       -1.02228767110000
F            3.94570235150000       -0.51977156990000        0.21391719000000
C           -0.36956830200000        1.43571155090000        0.34485093440000
H           -2.61705630250000        4.84608971630000        0.20540845960000
H           -0.92541221650000        4.17159579850000        0.30691158210000
H           -3.55571133500000        2.63750178520000        0.00803247010000
H           -3.49083238520000        0.34662555880000       -0.32887736330000
H           -3.57302616790000       -2.01535548320000       -0.58267005310000
H           -2.42261571270000       -2.85560652460000        0.47074967090000
H           -2.08920988500000       -2.72074645320000       -1.24767597430000
H            2.14338891860000        0.91169510960000        1.28912517790000
H            0.18916374370000        2.33547133980000        0.54638449240000
$end

$rem
BASIS = 6-31G*
GUI = 2
METHOD = B3LYP
PRINT_ORBITALS false
MOLDEN_FORMAT false
$end
--------------------------------------------------------------

             Standard Nuclear Orientation (Angstroms)
    I     Atom           X                Y                Z
 ----------------------------------------------------------------
    1      C       3.6201773765    -2.4026896689    -0.1937148873
    2      C       3.4222689442    -1.0916096557    -0.1324329158
    3      C       2.1397258871    -0.4065704527    -0.0149431872
    4      C       2.1131474108     0.9877216024    -0.0954289710
    5      C       0.9358221467     1.7060065938     0.0204466909
    6      C       0.8980454670     3.2005534527    -0.0402986104
    7      C      -0.2425750906     0.9916330485     0.2076727847
    8      F      -1.3865288408     1.6870209623     0.3764065251
    9      C      -0.2703566243    -0.3992587302     0.2763366555
   10      C      -1.5071500282    -1.1550255487     0.4680938870
   11      C      -2.6792766624    -0.8788529452    -0.0799338705
   12      F      -2.9603218366     0.0884462126    -0.9356788310
   13      F      -3.7705797889    -1.6123778508     0.1275744550
   14      C       0.9387211399    -1.0810572858     0.1805075506
   15      H       4.6110399603    -2.8131533138    -0.2834359574
   16      H       2.8167555892    -3.1182323599    -0.1635401099
   17      H       4.2786150542    -0.4305035150    -0.1816282038
   18      H       3.0386136321     1.5250615229    -0.2448204059
   19      H       1.8908975677     3.6063528541    -0.2117262904
   20      H       0.5049606545     3.6042193171     0.8920551478
   21      H       0.2358957837     3.5267343600    -0.8411308086
   22      H      -1.4577047088    -2.0366947506     1.0888583956
   23      H       0.9265008641    -2.1566904929     0.2528181324
 ----------------------------------------------------------------

    9    -724.0647910371      3.73e-06  Convergence criterion met
 Total energy in the final basis set =     -724.0647910371

                    Orbital Energies (a.u.)
 --------------------------------------------------------------

 Alpha MOs
 -- Occupied --
-24.7379 -24.7330 -24.7091 -10.3567 -10.2690 -10.2119 -10.2032 -10.2030
-10.1986 -10.1946 -10.1932 -10.1931 -10.1865 -10.1819  -1.2831  -1.2237
 -1.2191  -0.8789  -0.8183  -0.8019  -0.7599  -0.7299  -0.6968  -0.6480
 -0.6270  -0.6079  -0.5708  -0.5640  -0.5463  -0.5202  -0.5158  -0.4995
 -0.4755  -0.4656  -0.4446  -0.4397  -0.4367  -0.4325  -0.4223  -0.4177
 -0.4093  -0.4083  -0.4001  -0.3762  -0.3689  -0.3537  -0.3440  -0.3076
 -0.2773  -0.2343  -0.2192

          Ground-State Mulliken Net Atomic Charges

     Atom                 Charge (a.u.)
  ----------------------------------------
      1 C                    -0.353645
      2 C                    -0.115285
      3 C                     0.193016
      4 C                    -0.260087
      5 C                     0.108383
      6 C                    -0.521869
      7 C                     0.260104
      8 F                    -0.287204
      9 C                     0.113506
     10 C                    -0.319244
     11 C                     0.569353
     12 F                    -0.229411
     13 F                    -0.247572
     14 C                    -0.254699
     15 H                     0.145136
     16 H                     0.142550
     17 H                     0.127796
     18 H                     0.127193
     19 H                     0.155867
     20 H                     0.172628
     21 H                     0.173214
     22 H                     0.169027
     23 H                     0.131245
  ----------------------------------------
  Sum of atomic charges =     0.000000

                    Cartesian Multipole Moments
 -----------------------------------------------------------------
    Charge (ESU x 10^10)
                 0.0000
    Dipole Moment (Debye)
         X       1.8007      Y      -0.1364      Z       0.2344
       Tot       1.8211
    Quadrupole Moments (Debye-Ang)
        XX     -78.3171     XY       1.9213     YY     -71.6727
        XZ      -1.1340     YZ      -1.1863     ZZ     -80.2307

 Total job time:  63.64s(wall), 55.50s(cpu)
        *  Thank you very much for using Q-Chem.  Have a nice day.  *
