 Q-Chem 5.2, Q-Chem, Inc., Pleasanton, CA (2019)
 Q-Chem 5.2.1 for Intel X86 EM64T Linux

User input:
--------------------------------------------------------------
$molecule
0 1
C         3.44641713770000    1.72647513110000    0.03780492840000
C         2.95381051070000    0.53971693900000   -0.29589369370000
C         1.57182089680000    0.11614960020000   -0.11148455140000
C         0.52507130030000    1.03413591600000   -0.03702768530000
C        -0.79052925440000    0.63152323740000    0.13741694580000
C        -1.85216663960000    1.62432178180000    0.30646971840000
C        -1.93153663610000    2.76040850510000   -0.37286241560000
C        -1.01885454100000   -0.76106911870000    0.17928397220000
N        -2.25855078910000   -1.34192434690000    0.28864328240000
N        -3.44152564280000   -0.79683523110000   -0.25367544060000
N        -0.02141569170000   -1.64089183710000    0.13529296900000
C         1.23138624480000   -1.24054713220000    0.01570727180000
C         2.25991796170000   -2.32954407440000    0.02821676500000
H         4.48018356670000    1.97387639770000   -0.13297497140000
H         2.84906756950000    2.49031133940000    0.50649696080000
H         3.61307590850000   -0.19806441310000   -0.73365002130000
H         0.73718762800000    2.09109175810000   -0.09756918780000
H        -2.58865158780000    1.40049843280000    1.06859149460000
H        -1.22398368110000    3.01019723070000   -1.14611289960000
H        -2.71465345370000    3.47652255630000   -0.19123785900000
H        -2.21312511070000   -2.34801255170000    0.16476877350000
H        -3.23183917070000   -0.15578878710000   -1.01701424800000
H        -3.94876077510000   -0.28268047140000    0.46374153410000
H         1.76727526840000   -3.27744228370000    0.22395083690000
H         3.00621059160000   -2.14401758220000    0.79831111510000
H         2.76678420520000   -2.38883136620000   -0.93431919720000
$end

$rem
BASIS = 6-31G*
GUI = 2
METHOD = B3LYP
PRINT_ORBITALS false
MOLDEN_FORMAT false
--------------------------------------------------------------

             Standard Nuclear Orientation (Angstroms)
    I     Atom           X                Y                Z
 ----------------------------------------------------------------
    1      C       3.3425739197    -1.8641996687    -0.1675673327
    2      C       2.9114691899    -0.6717538355     0.2256663289
    3      C       1.5492922428    -0.1752632739     0.0797814343
    4      C       0.4589002166    -1.0383052409    -0.0208724833
    5      C      -0.8378554058    -0.5663212239    -0.1586718344
    6      C      -1.9478315526    -1.4990274701    -0.3569487604
    7      C      -2.0735174518    -2.6596597936     0.2720349054
    8      C      -0.9995976494     0.8359923278    -0.1351154348
    9      N      -2.2112168898     1.4792930470    -0.2010096178
   10      N      -3.4124395473     0.9668849193     0.3329972021
   11      N       0.0393506154     1.6646683284    -0.0659050942
   12      C       1.2728402738     1.2004062470     0.0180788104
   13      C       2.3522050136     2.2388908870     0.0397520938
   14      H       4.3652416836    -2.1677850570    -0.0225406205
   15      H       2.7037353721    -2.5768738556    -0.6614552698
   16      H       3.6105298827     0.0133878007     0.6866195550
   17      H       0.6207759501    -2.1057808740    -0.0105631726
   18      H      -2.6817498493    -1.2062904466    -1.0978978417
   19      H      -1.3696088971    -2.9774391340     1.0233477165
   20      H      -2.8921905550    -3.3289051458     0.0696398152
   21      H      -2.1161106981     2.4754593389    -0.0329935668
   22      H      -3.2246755120     0.2827292786     1.0639355177
   23      H      -3.9522567631     0.5103433674    -0.3994622827
   24      H       1.9033053316     3.2169554724    -0.1065298518
   25      H       3.0795208907     2.0532561065    -0.7482640354
   26      H       2.8727511337     2.2304653544     0.9967602430
 ----------------------------------------------------------------

    9    -553.0710320822      2.48e-06  Convergence criterion met
 Total energy in the final basis set =     -553.0710320822

                    Orbital Energies (a.u.)
 --------------------------------------------------------------

 Alpha MOs
 -- Occupied --
-14.3681 -14.3561 -14.3135 -10.2528 -10.2221 -10.1978 -10.1952 -10.1942
-10.1874 -10.1845 -10.1837 -10.1752 -10.1741  -0.9964  -0.9362  -0.8284
 -0.8209  -0.7882  -0.7492  -0.7351  -0.6911  -0.6375  -0.6143  -0.5778
 -0.5578  -0.5334  -0.5174  -0.5036  -0.4821  -0.4720  -0.4496  -0.4352
 -0.4317  -0.4146  -0.4056  -0.3950  -0.3871  -0.3722  -0.3685  -0.3426
 -0.3241  -0.3085  -0.2798  -0.2606  -0.2502  -0.2443  -0.1926

          Ground-State Mulliken Net Atomic Charges

     Atom                 Charge (a.u.)
  ----------------------------------------
      1 C                    -0.348507
      2 C                    -0.129935
      3 C                     0.115890
      4 C                    -0.217126
      5 C                     0.127623
      6 C                    -0.154013
      7 C                    -0.342791
      8 C                     0.430296
      9 N                    -0.516863
     10 N                    -0.584607
     11 N                    -0.565032
     12 C                     0.256416
     13 C                    -0.522079
     14 H                     0.140203
     15 H                     0.140419
     16 H                     0.129151
     17 H                     0.136421
     18 H                     0.134681
     19 H                     0.146524
     20 H                     0.142781
     21 H                     0.338038
     22 H                     0.320193
     23 H                     0.320678
     24 H                     0.174786
     25 H                     0.165133
     26 H                     0.161718
  ----------------------------------------
  Sum of atomic charges =     0.000000

                    Cartesian Multipole Moments
 -----------------------------------------------------------------
    Charge (ESU x 10^10)
                 0.0000
    Dipole Moment (Debye)
         X      -0.3160      Y      -1.4275      Z       0.2319
       Tot       1.4803
    Quadrupole Moments (Debye-Ang)
        XX     -70.5286     XY       4.9399     YY     -75.7423
        XZ       2.4432     YZ      -0.0214     ZZ     -78.3171

 Total job time:  37.19s(wall), 36.53s(cpu)
        *  Thank you very much for using Q-Chem.  Have a nice day.  *
