 Q-Chem 5.2, Q-Chem, Inc., Pleasanton, CA (2019)
 Q-Chem 5.2.1 for Intel X86 EM64T Linux

User input:
--------------------------------------------------------------
$molecule
0 1
C        -1.96327387720000   -2.54051693910000    0.41948027430000
C        -2.36092035950000   -1.43770292410000   -0.20257794640000
C        -1.70011487840000   -0.14404229760000   -0.14999426950000
C        -2.43579055630000    1.06919738020000   -0.13276648350000
C        -1.65101695250000    2.17006883900000   -0.03784174780000
S         0.01967178140000    1.78095364840000    0.01118548280000
C        -0.33664341910000    0.08126948370000   -0.09182338440000
C         0.70165116230000   -0.90186236580000   -0.20555366520000
C         1.99808031860000   -0.70107115110000   -0.00025318610000
F         2.57666360980000    0.43097495910000    0.38451788350000
F         2.92268940630000   -1.64754054500000   -0.14711498430000
H        -2.52067624990000   -3.45816070210000    0.34140348650000
H        -1.09280999940000   -2.56272371800000    1.05273839470000
H        -3.28240189460000   -1.44691273660000   -0.77186102030000
H        -3.51006398640000    1.10311971760000   -0.17079735200000
H        -1.95209083850000    3.19787630220000    0.00644680070000
H         0.40446166660000   -1.89541077060000   -0.50605242620000
$end

$rem
BASIS = 6-31G*
GUI = 2
METHOD = B3LYP
PRINT_ORBITALS false
MOLDEN_FORMAT false
--------------------------------------------------------------

             Standard Nuclear Orientation (Angstroms)
    I     Atom           X                Y                Z
 ----------------------------------------------------------------
    1      C      -1.3057615335    -2.8472066766     0.4324912641
    2      C      -1.9329002323    -1.8439464888    -0.1687108272
    3      C      -1.5470160045    -0.4434904066    -0.1157687070
    4      C      -2.5127553965     0.5951003286    -0.0694791107
    5      C      -1.9654566969     1.8316567205     0.0210234110
    6      S      -0.2498997514     1.7893111745     0.0303168326
    7      C      -0.2565534515     0.0534006510    -0.0839984814
    8      C       0.9565766561    -0.6978360530    -0.2306177317
    9      C       2.1897613012    -0.2395266088    -0.0506120637
   10      F       2.5355531431     0.9838104695     0.3343687038
   11      F       3.2834030473    -0.9777134624    -0.2275373771
   12      H      -1.6672247185    -3.8583271612     0.3560504562
   13      H      -0.4345376862    -2.6964987970     1.0468791656
   14      H      -2.8462290311    -2.0361895694    -0.7184101647
   15      H      -3.5721871777     0.4105921219    -0.0843618989
   16      H      -2.4675235162     2.7766809554     0.0830979323
   17      H       0.8601245856    -1.7290182040    -0.5357732723
 ----------------------------------------------------------------

    9    -906.2688312427      8.11e-06  Convergence criterion met
 Total energy in the final basis set =     -906.2688312427

                    Orbital Energies (a.u.)
 --------------------------------------------------------------

 Alpha MOs
 -- Occupied --
-88.9084 -24.7447 -24.7357 -10.3564 -10.2277 -10.2124 -10.2083 -10.1994
-10.1986 -10.1913 -10.1854  -7.9702  -5.9342  -5.9303  -5.9272  -1.2853
 -1.2258  -0.8942  -0.8091  -0.7966  -0.7290  -0.7156  -0.6430  -0.6058
 -0.5815  -0.5787  -0.5397  -0.5192  -0.5076  -0.4896  -0.4618  -0.4429
 -0.4417  -0.4277  -0.4177  -0.4012  -0.3907  -0.3842  -0.3689  -0.3394
 -0.2992  -0.2966  -0.2411  -0.2060

          Ground-State Mulliken Net Atomic Charges

     Atom                 Charge (a.u.)
  ----------------------------------------
      1 C                    -0.347761
      2 C                    -0.118724
      3 C                     0.133288
      4 C                    -0.125799
      5 C                    -0.352968
      6 S                     0.268227
      7 C                    -0.205178
      8 C                    -0.237734
      9 C                     0.535566
     10 F                    -0.230566
     11 F                    -0.247493
     12 H                     0.145522
     13 H                     0.154578
     14 H                     0.136952
     15 H                     0.140845
     16 H                     0.172707
     17 H                     0.178538
  ----------------------------------------
  Sum of atomic charges =     0.000000

                    Cartesian Multipole Moments
 -----------------------------------------------------------------
    Charge (ESU x 10^10)
                 0.0000
    Dipole Moment (Debye)
         X      -1.5972      Y      -0.5815      Z      -0.1810
       Tot       1.7094
    Quadrupole Moments (Debye-Ang)
        XX     -65.8294     XY      -1.3629     YY     -63.3305
        XZ       1.0001     YZ       0.1920     ZZ     -70.6097

 Total job time:  20.63s(wall), 20.55s(cpu)
        *  Thank you very much for using Q-Chem.  Have a nice day.  *
