 Q-Chem 5.2, Q-Chem, Inc., Pleasanton, CA (2019)
 Q-Chem 5.2.1 for Intel X86 EM64T Linux

User input:
--------------------------------------------------------------
$molecule
0 1
C         5.24370422790000   -2.23608339660000   -0.82136929530000
C         4.04609365330000   -2.22816282720000   -0.24974662930000
C         3.17585990890000   -1.07203099840000   -0.05912087520000
C         3.58629342390000    0.23172282200000   -0.32489108130000
C         2.72484397340000    1.30208171880000   -0.10997133210000
C         3.20813574750000    2.65162974370000   -0.38657575280000
C         2.60249190760000    3.79528942270000   -0.09198570990000
C         1.43104790140000    1.05748140240000    0.34631089930000
C         0.98481757250000   -0.23685379930000    0.61416533350000
N        -0.27468241570000   -0.50130268720000    1.14311578980000
C        -1.04211211950000   -1.62110708930000    0.64404447430000
C        -1.85457547670000   -1.22615766570000   -0.59532526680000
C        -2.79229168600000   -0.05691642670000   -0.26243211780000
C        -1.98125301660000    1.10108485030000    0.33517049380000
C        -1.15346490180000    0.58222783490000    1.51650754600000
O        -3.78596481350000   -0.51030083470000    0.64772156060000
C        -5.04640556990000   -0.11215720380000    0.16212844590000
C        -4.81219459800000   -0.00557076100000   -1.34570929240000
O        -3.46740383150000    0.40721083680000   -1.42242848430000
C         1.88737409840000   -1.28669181240000    0.41837857100000
H         5.81101644600000   -3.14585509150000   -0.92080326810000
H         5.70715525770000   -1.34871806620000   -1.21685194920000
H         3.63610156520000   -3.16321226340000    0.11403714830000
H         4.58573035500000    0.42309293700000   -0.68282676470000
H         4.17611583280000    2.68724179580000   -0.87239728200000
H         1.64836341070000    3.84255982120000    0.40466850290000
H         3.04974027620000    4.74397095630000   -0.33555785930000
H         0.77080772530000    1.89745160630000    0.47513491450000
H        -1.73270640310000   -1.93855029810000    1.43136159230000
H        -0.38851367390000   -2.45493004500000    0.39607730410000
H        -2.44798751780000   -2.07316656360000   -0.94134308620000
H        -1.18774998090000   -0.90906376690000   -1.39865408870000
H        -2.66453526480000    1.88512595190000    0.66398182950000
H        -1.34207913960000    1.49981350250000   -0.45261123100000
H        -1.84585955750000    0.18932862570000    2.26914992240000
H        -0.57587324600000    1.38522633620000    1.97502733320000
H        -5.33180030950000    0.86117550260000    0.58481222230000
H        -5.77977515560000   -0.86750261820000    0.44428586790000
H        -5.43149653340000    0.74350220580000   -1.83833677600000
H        -4.94473032890000   -0.98047665170000   -1.83475897740000
H         1.59363028400000   -2.29823915220000    0.65508051450000
$end

$rem
BASIS = 6-31G*
GUI = 2
METHOD = B3LYP
PRINT_ORBITALS false
MOLDEN_FORMAT false
--------------------------------------------------------------

             Standard Nuclear Orientation (Angstroms)
    I     Atom           X                Y                Z
 ----------------------------------------------------------------
    1      C       5.2582001924     2.2410290846     0.7805567808
    2      C       4.0586522589     2.2293934011     0.2130749200
    3      C       3.1866369842     1.0725446271     0.0353784704
    4      C       3.5966818468    -0.2292837984     0.3110040463
    5      C       2.7334531386    -1.3005814277     0.1082445607
    6      C       3.2163473248    -2.6481828772     0.3948529247
    7      C       2.6085803219    -3.7937258964     0.1121946909
    8      C       1.4383603644    -1.0586127901    -0.3457564856
    9      C       0.9925025529     0.2338157619    -0.6232639066
   10      N      -0.2685210060     0.4949703453    -1.1502173081
   11      C      -1.0331496325     1.6198185849    -0.6582397387
   12      C      -1.8417979787     1.2364036968     0.5872320533
   13      C      -2.7817903233     0.0652870037     0.2676155705
   14      C      -1.9739245829    -1.0986511716    -0.3227067412
   15      C      -1.1496326394    -0.5908481972    -1.5112697086
   16      O      -3.7780939607     0.5118106010    -0.6430540530
   17      C      -5.0372743166     0.1191527584    -0.1497847814
   18      C      -4.7980605341     0.0253429375     1.3581166006
   19      O      -3.4534255502    -0.3881275620     1.4338503023
   20      C       1.8967529942     1.2843864209    -0.4395983889
   21      H       5.8267436801     3.1510479659     0.8702158166
   22      H       5.7221127205     1.3566388028     1.1821157576
   23      H       3.6483528142     3.1616851866    -0.1573788419
   24      H       4.5971365896    -0.4185737373     0.6671982073
   25      H       4.1859324906    -2.6805851878     0.8776892515
   26      H       1.6527281532    -3.8443104542    -0.3808052282
   27      H       3.0557150123    -4.7407243839     0.3624337380
   28      H       0.7768587940    -1.8989919854    -0.4650927368
   29      H      -1.7260942310     1.9311580626    -1.4459290255
   30      H      -0.3778920893     2.4550855558    -0.4196899401
   31      H      -2.4331978877     2.0869692633     0.9279293089
   32      H      -1.1725674179     0.9255758269     1.3910096783
   33      H      -2.6590905622    -1.8848055801    -0.6424266199
   34      H      -1.3324787175    -1.4912167667     0.4663225893
   35      H      -1.8441856319    -0.2037545419    -2.2649309968
   36      H      -0.5743908073    -1.3983596914    -1.9647905246
   37      H      -5.3250601752    -0.8575004015    -0.5630839398
   38      H      -5.7708499970     0.8727802180    -0.4359714831
   39      H      -5.4164285605    -0.7188217701     1.8592821484
   40      H      -4.9279761029     1.0045665356     1.8391778234
   41      H       1.6032072252     2.2941516439    -0.6840290235
 ----------------------------------------------------------------

    8    -865.5937549853      7.23e-06  Convergence criterion met
 Total energy in the final basis set =     -865.5937549853

                    Orbital Energies (a.u.)
 --------------------------------------------------------------

 Alpha MOs
 -- Occupied --
-19.1578 -19.1542 -14.3382 -10.2861 -10.2415 -10.2398 -10.2190 -10.2122
-10.2110 -10.1866 -10.1864 -10.1839 -10.1834 -10.1795 -10.1786 -10.1747
-10.1737 -10.1735 -10.1721 -10.1700  -1.0958  -1.0009  -0.9522  -0.8555
 -0.8107  -0.7973  -0.7691  -0.7637  -0.7354  -0.7152  -0.7108  -0.6526
 -0.6424  -0.6362  -0.6144  -0.6050  -0.5802  -0.5453  -0.5334  -0.5237
 -0.5143  -0.4998  -0.4886  -0.4785  -0.4710  -0.4560  -0.4504  -0.4474
 -0.4422  -0.4274  -0.4203  -0.4175  -0.4133  -0.3986  -0.3940  -0.3914
 -0.3731  -0.3688  -0.3664  -0.3620  -0.3549  -0.3493  -0.3424  -0.3393
 -0.3327  -0.3285  -0.3089  -0.2959  -0.2720  -0.2490  -0.2408  -0.2121
 -0.1875

          Ground-State Mulliken Net Atomic Charges

     Atom                 Charge (a.u.)
  ----------------------------------------
      1 C                    -0.353093
      2 C                    -0.115648
      3 C                     0.192869
      4 C                    -0.278732
      5 C                     0.185247
      6 C                    -0.111568
      7 C                    -0.355959
      8 C                    -0.269773
      9 C                     0.360346
     10 N                    -0.470433
     11 C                    -0.175801
     12 C                    -0.274866
     13 C                     0.536312
     14 C                    -0.284095
     15 C                    -0.168098
     16 O                    -0.511430
     17 C                    -0.047085
     18 C                    -0.050862
     19 O                    -0.516989
     20 C                    -0.266901
     21 H                     0.140888
     22 H                     0.142566
     23 H                     0.122842
     24 H                     0.118122
     25 H                     0.125018
     26 H                     0.138796
     27 H                     0.141430
     28 H                     0.124019
     29 H                     0.160955
     30 H                     0.153835
     31 H                     0.135462
     32 H                     0.157086
     33 H                     0.136389
     34 H                     0.160302
     35 H                     0.160505
     36 H                     0.154629
     37 H                     0.136446
     38 H                     0.151466
     39 H                     0.152239
     40 H                     0.136253
     41 H                     0.127311
  ----------------------------------------
  Sum of atomic charges =     0.000000

                    Cartesian Multipole Moments
 -----------------------------------------------------------------
    Charge (ESU x 10^10)
                 0.0000
    Dipole Moment (Debye)
         X      -2.7515      Y       0.3040      Z       0.1692
       Tot       2.7734
    Quadrupole Moments (Debye-Ang)
        XX    -103.1663     XY       0.0326     YY    -111.9301
        XZ       2.3438     YZ       1.7195     ZZ    -124.2800

 Total job time:  87.15s(wall), 86.80s(cpu)
        *  Thank you very much for using Q-Chem.  Have a nice day.  *
