 Q-Chem 5.2, Q-Chem, Inc., Pleasanton, CA (2019)
 Q-Chem 5.2.1 for Intel X86 EM64T Linux

User input:
--------------------------------------------------------------
$molecule
0 1
C        -2.17179237150000   -3.12943874890000   -0.00284524870000
C        -2.21126880300000   -1.84466155340000   -0.33465586380000
C        -1.10367232300000   -0.91530119040000   -0.14616866280000
C         0.21596658600000   -1.36316021200000   -0.15893711430000
C         1.29274428310000   -0.50584676640000    0.00991812950000
C         2.65132988640000   -1.12787989450000   -0.07582810080000
O         2.87086397280000   -2.24978901050000    0.28514338620000
O         3.62272331610000   -0.38008345460000   -0.62935052170000
C         1.07458280150000    0.86495404390000    0.22785428460000
C         2.16625064270000    1.79673815460000    0.52882452710000
C         2.22364776450000    3.05049263430000    0.09824769170000
C        -0.24023243250000    1.32089363730000    0.21252338110000
C        -1.31807413780000    0.46491025990000    0.01774023220000
C        -2.70158057590000    1.03028858130000    0.07257974250000
O        -3.62820983090000    0.49470451990000    0.61030346860000
O        -2.85530955930000    2.22728165410000   -0.52874700610000
H        -3.02193414660000   -3.77027556290000   -0.15805275660000
H        -1.30998757750000   -3.58306841910000    0.45722148940000
H        -3.12124688560000   -1.42537861800000   -0.73867230930000
H         0.42849987650000   -2.40849077500000   -0.32084281720000
H         3.31962549560000    0.50486624430000   -0.87914287680000
H         2.95276296320000    1.41048595840000    1.16582672920000
H         1.47368640300000    3.47012952330000   -0.55230377850000
H         3.03537993660000    3.70225239340000    0.36977597510000
H        -0.41655456350000    2.36700325140000    0.42663671420000
H        -2.04501679450000    2.53662988910000   -0.95481444840000
$end

$rem
BASIS = 6-31G*
GUI = 2
METHOD = B3LYP
PRINT_ORBITALS false
MOLDEN_FORMAT false
--------------------------------------------------------------

             Standard Nuclear Orientation (Angstroms)
    I     Atom           X                Y                Z
 ----------------------------------------------------------------
    1      C      -2.2073625398    -3.1200393063     0.0643855938
    2      C      -2.2343090682    -1.8419856982    -0.2936115771
    3      C      -1.1180223265    -0.9195801368    -0.1230830973
    4      C       0.1972850551    -1.3801758540    -0.1254630070
    5      C       1.2820805507    -0.5299056839     0.0268787696
    6      C       2.6347228537    -1.1664926944    -0.0448725237
    7      O       2.8432535308    -2.2828420608     0.3391258397
    8      O       3.6136336769    -0.4394537659    -0.6126222732
    9      C       1.0768672902     0.8470775626     0.2165893854
   10      C       2.1771649767     1.7743545775     0.4995129264
   11      C       2.2468650792     3.0184528183     0.0434947258
   12      C      -0.2335183449     1.3151321280     0.1907154595
   13      C      -1.3193456529     0.4656725175     0.0124230410
   14      C      -2.6974259623     1.0452258948     0.0544066844
   15      O      -3.6295345866     0.5295958615     0.6020726864
   16      O      -2.8392567763     2.2311054646    -0.5713668701
   17      H      -3.0634737635    -3.7557713688    -0.0785148885
   18      H      -1.3502778083    -3.5723833343     0.5344275361
   19      H      -3.1399351599    -1.4223758210    -0.7069595080
   20      H       0.3999390960    -2.4305739355    -0.2658020682
   21      H       3.3191950086     0.4430633153    -0.8807079891
   22      H       2.9594720361     1.3937013898     1.1450073186
   23      H       1.5014365324     3.4318569040    -0.6161928678
   24      H       3.0645856718     3.6678461965     0.3024325255
   25      H      -0.3999945778     2.3670294238     0.3832695588
   26      H      -2.0257252591     2.5239464835    -1.0028929630
 ----------------------------------------------------------------

    9    -764.1586218519      8.39e-06  Convergence criterion met
 Total energy in the final basis set =     -764.1586218519

                    Orbital Energies (a.u.)
 --------------------------------------------------------------

 Alpha MOs
 -- Occupied --
-19.2076 -19.2035 -19.1457 -19.1417 -10.3323 -10.3293 -10.2359 -10.2322
-10.2303 -10.2294 -10.2279 -10.2269 -10.2191 -10.2170 -10.2010 -10.1928
 -1.1173  -1.1138  -1.0349  -1.0309  -0.9049  -0.8419  -0.8013  -0.7959
 -0.7443  -0.6878  -0.6685  -0.6432  -0.6274  -0.6061  -0.5971  -0.5588
 -0.5427  -0.5229  -0.4863  -0.4726  -0.4694  -0.4638  -0.4575  -0.4561
 -0.4483  -0.4415  -0.4330  -0.4094  -0.4003  -0.3997  -0.3829  -0.3765
 -0.3661  -0.3404  -0.3290  -0.3239  -0.2988  -0.2944  -0.2813  -0.2747
 -0.2446

          Ground-State Mulliken Net Atomic Charges

     Atom                 Charge (a.u.)
  ----------------------------------------
      1 C                    -0.339503
      2 C                    -0.101701
      3 C                     0.136108
      4 C                    -0.239594
      5 C                     0.021324
      6 C                     0.534651
      7 O                    -0.434004
      8 O                    -0.571097
      9 C                     0.119415
     10 C                    -0.203982
     11 C                    -0.326144
     12 C                    -0.277554
     13 C                     0.009091
     14 C                     0.539156
     15 O                    -0.428285
     16 O                    -0.562073
     17 H                     0.156500
     18 H                     0.157448
     19 H                     0.159281
     20 H                     0.174265
     21 H                     0.417708
     22 H                     0.179715
     23 H                     0.149588
     24 H                     0.166610
     25 H                     0.150057
     26 H                     0.413019
  ----------------------------------------
  Sum of atomic charges =     0.000000

                    Cartesian Multipole Moments
 -----------------------------------------------------------------
    Charge (ESU x 10^10)
                -0.0000
    Dipole Moment (Debye)
         X       1.4432      Y       3.7767      Z      -2.1400
       Tot       4.5745
    Quadrupole Moments (Debye-Ang)
        XX    -113.0193     XY      18.6237     YY     -84.3771
        XZ       4.1626     YZ      -1.4789     ZZ     -90.4464

 Total job time:  48.89s(wall), 47.45s(cpu)
        *  Thank you very much for using Q-Chem.  Have a nice day.  *
