 Q-Chem 5.4, Q-Chem, Inc., Pleasanton, CA (2021)
 Q-Chem 5.4.2 for Intel X86 EM64T Linux

User input:
--------------------------------------------------------------
$molecule
0 1
C           -3.19659636290000        2.28149004780000       -1.13031197580000
C           -3.08572343330000        1.25569168490000       -0.29724975760000
C           -1.89854228610000        0.40899401370000       -0.15323841160000
C           -2.10331934070000       -0.94642779700000        0.09895187640000
C           -1.03396226430000       -1.82024580810000        0.15373941950000
Cl          -1.31925520590000       -3.49799131740000        0.45388694780000
C            0.26007936190000       -1.37452353040000       -0.04020721340000
C            0.49780113190000       -0.01833598070000       -0.25551454430000
C            1.83126774290000        0.52477891150000       -0.46022137310000
C            2.99853048000000       -0.08311417110000       -0.31936125730000
F            3.23200021040000       -1.33710612240000        0.04837931430000
F            4.16318901080000        0.52556254160000       -0.53184699750000
C           -0.58556677300000        0.88148423480000       -0.29292329260000
O           -0.31041043140000        2.21588338480000       -0.48330774780000
C           -0.56762355750000        3.06360057050000        0.62897169100000
C            0.39633286720000        2.81905791750000        1.78484909820000
H           -4.11596560640000        2.83504453780000       -1.21832638900000
H           -2.37852960060000        2.59889707800000       -1.75365533560000
H           -3.94035369760000        0.94110382440000        0.28937968870000
H           -3.10874250090000       -1.31738499320000        0.22539854720000
H            1.07375085860000       -2.07911630010000       -0.01614461800000
H            1.86938240940000        1.56117856420000       -0.76196373820000
H           -1.60143682060000        2.93988527780000        0.97263575110000
H           -0.44467517280000        4.07509240870000        0.23498421000000
H            0.28946751500000        1.80256896920000        2.15872635420000
H            0.17787575940000        3.51343066060000        2.59125884420000
H            1.42459080250000        2.96578478230000        1.46402379420000
$end

$rem
BASIS = 6-31G*
GUI = 2
METHOD = B3LYP
PRINT_ORBITALS false
MOLDEN_FORMAT false
$end
--------------------------------------------------------------

             Standard Nuclear Orientation (Angstroms)
    I     Atom           X                Y                Z
 ----------------------------------------------------------------
    1      C       3.5596172997    -1.3985384429    -1.1203798402
    2      C       3.2092777586    -0.4134579901    -0.3046430844
    3      C       1.8556428206     0.1313018346    -0.1706860822
    4      C       1.7343747955     1.5009619547     0.0574083936
    5      C       0.4888565097     2.0983286422     0.1012420414
    6      Cl      0.3696737997     3.8010020134     0.3714446838
    7      C      -0.6632146061     1.3562550672    -0.0801038408
    8      C      -0.5737916747    -0.0212811171    -0.2711827688
    9      C      -1.7411635467    -0.8674770522    -0.4614647346
   10      C      -3.0190355595    -0.5500793140    -0.3266327488
   11      F      -3.5422332530     0.6195654500     0.0204009045
   12      F      -4.0068871934    -1.4202404061    -0.5242076631
   13      C       0.6914764885    -0.6402956447    -0.2972469536
   14      O       0.7393684775    -2.0050661134    -0.4636388694
   15      C       1.1891321361    -2.7483589549     0.6620506848
   16      C       0.1942677661    -2.7181088176     1.8172110602
   17      H       4.5837560507    -1.7207604521    -1.2023658855
   18      H       2.8399006174    -1.9110849689    -1.7350678509
   19      H       3.9652026344     0.1043393185     0.2732462193
   20      H       2.6236790930     2.1010457890     0.1736451830
   21      H      -1.6202992492     1.8490570664    -0.0650552603
   22      H      -1.5332858945    -1.8887006467    -0.7452158130
   23      H       2.1643436922    -2.3779582969     0.9996097109
   24      H       1.3087269710    -3.7670411834     0.2859632322
   25      H       0.0578720076    -1.6987237140     2.1731666692
   26      H       0.5702631015    -3.3269518907     2.6345918239
   27      H      -0.7701185488    -3.1091527257     1.5028613701
 ----------------------------------------------------------------

    9   -1198.9418225965      5.09e-06  Convergence criterion met
 Total energy in the final basis set =    -1198.9418225965

                    Orbital Energies (a.u.)
 --------------------------------------------------------------

 Alpha MOs
 -- Occupied --
******** -24.7471 -24.7364 -19.1735 -10.3599 -10.2531 -10.2491 -10.2412
-10.2162 -10.2099 -10.2026 -10.2022 -10.2010 -10.1997 -10.1865 -10.1814
 -9.4652  -7.2289  -7.2195  -7.2192  -1.2883  -1.2271  -1.0653  -0.9002
 -0.8518  -0.8232  -0.7813  -0.7701  -0.7409  -0.7222  -0.6554  -0.6497
 -0.6242  -0.6061  -0.5772  -0.5615  -0.5290  -0.5222  -0.5214  -0.5038
 -0.4866  -0.4761  -0.4605  -0.4472  -0.4434  -0.4423  -0.4345  -0.4264
 -0.4155  -0.4059  -0.3980  -0.3910  -0.3848  -0.3780  -0.3626  -0.3501
 -0.3347  -0.3182  -0.3124  -0.2845  -0.2728  -0.2319  -0.2231

          Ground-State Mulliken Net Atomic Charges

     Atom                 Charge (a.u.)
  ----------------------------------------
      1 C                    -0.325437
      2 C                    -0.153395
      3 C                     0.160080
      4 C                    -0.210897
      5 C                    -0.058886
      6 Cl                   -0.015927
      7 C                    -0.219074
      8 C                     0.157316
      9 C                    -0.291578
     10 C                     0.548680
     11 F                    -0.233891
     12 F                    -0.246303
     13 C                     0.214164
     14 O                    -0.537226
     15 C                    -0.039780
     16 C                    -0.463544
     17 H                     0.144645
     18 H                     0.168758
     19 H                     0.137802
     20 H                     0.150811
     21 H                     0.161437
     22 H                     0.182197
     23 H                     0.149166
     24 H                     0.149026
     25 H                     0.163567
     26 H                     0.150856
     27 H                     0.157434
  ----------------------------------------
  Sum of atomic charges =     0.000000

                    Cartesian Multipole Moments
 -----------------------------------------------------------------
    Charge (ESU x 10^10)
                 0.0000
    Dipole Moment (Debye)
         X       1.6751      Y      -2.1970      Z       0.8175
       Tot       2.8812
    Quadrupole Moments (Debye-Ang)
        XX     -94.2941     XY      -2.4865     YY     -98.5623
        XZ       1.2009     YZ      -2.0306     ZZ     -98.5609

 Total job time:  70.99s(wall), 69.64s(cpu)
        *  Thank you very much for using Q-Chem.  Have a nice day.  *
