 Q-Chem 5.2, Q-Chem, Inc., Pleasanton, CA (2019)
 Q-Chem 5.2.1 for Intel X86 EM64T Linux

User input:
--------------------------------------------------------------
$molecule
0 1
C         3.59185195710000   -2.01246055500000   -0.11151576910000
C         2.28020827520000   -2.05721199380000    0.08522690820000
C         1.35334313010000   -0.93037158740000    0.04513874940000
C         1.78122734980000    0.39282156850000    0.00738861190000
C         0.86188086100000    1.43346630330000   -0.03663905880000
C         1.26276282010000    2.83665349030000   -0.06921225790000
C         2.48068645630000    3.31871578330000    0.14435616720000
C        -0.50228367780000    1.13187988480000   -0.05348050500000
C        -0.96195894930000   -0.17523967800000   -0.00734456600000
C        -2.44119672590000   -0.53233827610000   -0.01194947900000
C        -3.34705606930000    0.69964691210000   -0.08809629550000
C        -2.73924703250000   -1.41890567960000   -1.22923274810000
C        -2.77446214500000   -1.29145299670000    1.28006214720000
C        -0.01567202160000   -1.19207282350000    0.04742329500000
H         4.19593509930000   -2.90261812820000   -0.06731727460000
H         4.11751205150000   -1.09907294720000   -0.33135034370000
H         1.81453913870000   -3.01579260520000    0.28257988020000
H         2.83604101420000    0.61232237980000    0.01253772690000
H         0.45605490350000    3.53028543460000   -0.27585096370000
H         3.32425649240000    2.69075171630000    0.37458390970000
H         2.67988365880000    4.37605632540000    0.10427387540000
H        -1.19725860750000    1.95545697700000   -0.09402084310000
H        -3.16490683830000    1.26365248430000   -1.00007733200000
H        -3.19768811270000    1.34985281280000    0.77088572660000
H        -4.38844336860000    0.38360846160000   -0.09177115650000
H        -2.48078769180000   -0.89559230910000   -2.14759975450000
H        -3.79772166540000   -1.66912756680000   -1.26041727680000
H        -2.17260317090000   -2.34518502150000   -1.19503388490000
H        -2.54495827640000   -0.67575880990000    2.14744330090000
H        -2.20432273030000   -2.21307562440000    1.35711697120000
H        -3.83282603900000   -1.54280932480000    1.30509692420000
H        -0.33470076190000   -2.22362958090000    0.08359481870000
$end

$rem
BASIS = 6-31G*
GUI = 2
METHOD = B3LYP
PRINT_ORBITALS false
MOLDEN_FORMAT false
--------------------------------------------------------------

             Standard Nuclear Orientation (Angstroms)
    I     Atom           X                Y                Z
 ----------------------------------------------------------------
    1      C       3.1069599220     2.7561596500     0.1230028460
    2      C       1.8188637638     2.5095224723    -0.0797233493
    3      C       1.1639058725     1.2056832146    -0.0411395447
    4      C       1.8735765255     0.0099042293     0.0016423285
    5      C       1.2068734061    -1.2082053488     0.0439964640
    6      C       1.9079229791    -2.4879756184     0.0816686474
    7      C       3.2033197254    -2.6890822928    -0.1253020883
    8      C      -0.1902759841    -1.2156997511     0.0540117800
    9      C      -0.9273554522    -0.0426369042     0.0027395035
   10      C      -2.4489428007    -0.0214536274    -0.0001281196
   11      C      -3.0603432783    -1.4231432884     0.0748554918
   12      C      -2.9415944328     0.7788518669     1.2137169234
   13      C      -2.9354793253     0.6434961931    -1.2954037610
   14      C      -0.2290615613     1.1581934370    -0.0501778629
   15      H       3.4994809728     3.7577973531     0.0794185463
   16      H       3.8204836630     1.9818993315     0.3473408218
   17      H       1.1537429797     3.3411513463    -0.2814173931
   18      H       2.9508285043     0.0290654125     0.0017390570
   19      H       1.2735467760    -3.3425439845     0.2863201370
   20      H       3.8882802605    -1.8904362911    -0.3532225084
   21      H       3.6311730854    -3.6761525040    -0.0818390230
   22      H      -0.6861415855    -2.1725073793     0.0933737778
   23      H      -2.7624613910    -1.9317230515     0.9889687476
   24      H      -2.7667064190    -2.0253468099    -0.7819157306
   25      H      -4.1458392549    -1.3451895943     0.0731175476
   26      H      -2.5783206315     0.3268386963     2.1344624431
   27      H      -4.0293367431     0.7888757604     1.2395665665
   28      H      -2.5936212543     1.8074518510     1.1798792650
   29      H      -2.5712805992     0.0926584316    -2.1602959344
   30      H      -2.5828578354     1.6682717822    -1.3720702002
   31      H      -4.0230893992     0.6545776421    -1.3257748760
   32      H      -0.7680972878     2.0936266147    -0.0902067968
 ----------------------------------------------------------------

    8    -544.2994069236      6.52e-06  Convergence criterion met
 Total energy in the final basis set =     -544.2994069236

                    Orbital Energies (a.u.)
 --------------------------------------------------------------

 Alpha MOs
 -- Occupied --
-10.1979 -10.1909 -10.1904 -10.1875 -10.1875 -10.1871 -10.1801 -10.1799
-10.1797 -10.1773 -10.1769 -10.1707 -10.1701 -10.1700  -0.8690  -0.8241
 -0.8007  -0.7664  -0.7235  -0.7212  -0.6865  -0.6864  -0.6350  -0.6120
 -0.5835  -0.5508  -0.5196  -0.5089  -0.4792  -0.4674  -0.4559  -0.4412
 -0.4371  -0.4306  -0.4209  -0.4030  -0.3979  -0.3777  -0.3755  -0.3730
 -0.3708  -0.3664  -0.3593  -0.3390  -0.3324  -0.3194  -0.3146  -0.3113
 -0.2742  -0.2248  -0.2168

          Ground-State Mulliken Net Atomic Charges

     Atom                 Charge (a.u.)
  ----------------------------------------
      1 C                    -0.352103
      2 C                    -0.115290
      3 C                     0.186466
      4 C                    -0.253817
      5 C                     0.191989
      6 C                    -0.115774
      7 C                    -0.351986
      8 C                    -0.282243
      9 C                     0.199054
     10 C                     0.004512
     11 C                    -0.455033
     12 C                    -0.437517
     13 C                    -0.437498
     14 C                    -0.268697
     15 H                     0.142763
     16 H                     0.143079
     17 H                     0.125057
     18 H                     0.122960
     19 H                     0.125446
     20 H                     0.142754
     21 H                     0.142526
     22 H                     0.124624
     23 H                     0.146020
     24 H                     0.146409
     25 H                     0.141741
     26 H                     0.148386
     27 H                     0.138685
     28 H                     0.143773
     29 H                     0.148498
     30 H                     0.143453
     31 H                     0.138844
     32 H                     0.122920
  ----------------------------------------
  Sum of atomic charges =     0.000000

                    Cartesian Multipole Moments
 -----------------------------------------------------------------
    Charge (ESU x 10^10)
                 0.0000
    Dipole Moment (Debye)
         X      -0.5952      Y       0.0132      Z      -0.0017
       Tot       0.5953
    Quadrupole Moments (Debye-Ang)
        XX     -79.7357     XY       0.0381     YY     -80.3858
        XZ       0.0094     YZ      -0.7414     ZZ     -89.9010

 Total job time:  43.66s(wall), 43.53s(cpu)
        *  Thank you very much for using Q-Chem.  Have a nice day.  *
