 Q-Chem 5.2, Q-Chem, Inc., Pleasanton, CA (2019)
 Q-Chem 5.2.1 for Intel X86 EM64T Linux

User input:
--------------------------------------------------------------
$molecule
0 1
C        -3.67476084520000   -0.10509585270000    0.00054584420000
C        -2.51887467560000    0.55491903400000    0.00028131950000
C        -1.21515457940000   -0.05218284910000   -0.00040297840000
C        -0.85573834950000   -1.37774731990000   -0.00015595670000
C         0.52998908640000   -1.57704080290000    0.00020432650000
C         1.25599908040000   -0.41058781280000    0.00013846020000
C         2.68635921580000   -0.28135171590000    0.00107410720000
C         3.35046173640000    0.87135092350000   -0.00052814720000
S         0.19538248680000    0.96493120810000   -0.00054896810000
H        -4.61566250600000    0.41597197120000    0.00145522420000
H        -3.72139287010000   -1.18015984720000   -0.00010657880000
H        -2.51803454860000    1.63733682580000    0.00091421500000
H        -1.56898038700000   -2.18201430770000   -0.00012313590000
H         0.99228240190000   -2.54891759790000    0.00055047510000
H         3.22244096950000   -1.22238009990000    0.00345856590000
H         2.83304496070000    1.81665378660000   -0.00305636820000
H         4.42534291080000    0.90543537060000    0.00058206370000
$end

$rem
BASIS = 6-31G*
GUI = 2
METHOD = B3LYP
PRINT_ORBITALS false
MOLDEN_FORMAT false
--------------------------------------------------------------

             Standard Nuclear Orientation (Angstroms)
    I     Atom           X                Y                Z
 ----------------------------------------------------------------
    1      C       3.6678960694     0.0990060186    -0.0004443438
    2      C       2.4797807188     0.6990680728    -0.0003950033
    3      C       1.2088008177     0.0261129320     0.0004554598
    4      C       0.9176185288    -1.3160920098     0.0006046297
    5      C      -0.4561089688    -1.5859645898     0.0002860392
    6      C      -1.2407997608    -0.4581510561    -0.0000107189
    7      C      -2.6758962956    -0.4022054675    -0.0010046604
    8      C      -3.3980576745     0.7150409215     0.0002399601
    9      S      -0.2518876780     0.9697892154     0.0002748164
   10      H       4.5809300709     0.6674919374    -0.0014987312
   11      H       3.7694252925    -0.9722681870     0.0005339380
   12      H       2.4236075866     1.7800273872    -0.0013553677
   13      H       1.6710428000    -2.0828458243     0.0008246920
   14      H      -0.8681146420    -2.5802035228     0.0002277023
   15      H      -3.1631708650    -1.3694090689    -0.0031116301
   16      H      -2.9296421974     1.6855592864     0.0024891484
   17      H      -4.4732758077     0.6941316156    -0.0008949886
 ----------------------------------------------------------------

    9    -707.8036758274      4.55e-06  Convergence criterion met
 Total energy in the final basis set =     -707.8036758274

                    Orbital Energies (a.u.)
 --------------------------------------------------------------

 Alpha MOs
 -- Occupied --
-88.9035 -10.2190 -10.2175 -10.1994 -10.1979 -10.1914 -10.1889 -10.1835
-10.1812  -7.9655  -5.9294  -5.9259  -5.9225  -0.8897  -0.8068  -0.7735
 -0.7376  -0.7024  -0.6245  -0.5933  -0.5357  -0.5336  -0.5015  -0.4615
 -0.4494  -0.4280  -0.4023  -0.3945  -0.3793  -0.3639  -0.3623  -0.3375
 -0.3227  -0.2717  -0.2539  -0.1986

          Ground-State Mulliken Net Atomic Charges

     Atom                 Charge (a.u.)
  ----------------------------------------
      1 C                    -0.340941
      2 C                    -0.088309
      3 C                    -0.127703
      4 C                    -0.123187
      5 C                    -0.137930
      6 C                    -0.139073
      7 C                    -0.055989
      8 C                    -0.374846
      9 S                     0.242458
     10 H                     0.147668
     11 H                     0.142888
     12 H                     0.138237
     13 H                     0.138253
     14 H                     0.138876
     15 H                     0.137924
     16 H                     0.154999
     17 H                     0.146676
  ----------------------------------------
  Sum of atomic charges =     0.000000

                    Cartesian Multipole Moments
 -----------------------------------------------------------------
    Charge (ESU x 10^10)
                 0.0000
    Dipole Moment (Debye)
         X       0.1650      Y      -0.7328      Z      -0.0011
       Tot       0.7511
    Quadrupole Moments (Debye-Ang)
        XX     -53.0579     XY       0.8149     YY     -54.5302
        XZ       0.0023     YZ       0.0021     ZZ     -64.8539

 Total job time:  15.88s(wall), 15.54s(cpu)
        *  Thank you very much for using Q-Chem.  Have a nice day.  *
