 Q-Chem 5.2, Q-Chem, Inc., Pleasanton, CA (2019)
 Q-Chem 5.2.1 for Intel X86 EM64T Linux

User input:
--------------------------------------------------------------
$molecule
0 1
C         3.24504806410000   -2.98412790370000    0.43218611420000
C         3.19588503200000   -1.80058425280000   -0.16359468890000
C         2.05630297070000   -0.88478839510000   -0.11404032170000
C         0.76628618430000   -1.39555775240000   -0.07594568310000
C        -0.32616913760000   -0.54725557680000   -0.06748395130000
O        -1.58692859900000   -1.19625469080000   -0.03547916910000
C        -2.68829864010000   -0.49256776870000    0.03181705340000
F        -2.77134187500000    0.32695097350000    1.09916151230000
F        -2.91849209000000    0.29903828460000   -1.03636140000000
F        -3.72885585630000   -1.31971105840000    0.11211479330000
C        -0.15959200300000    0.82078797500000   -0.11666176870000
C         1.12251765310000    1.36443519320000   -0.14996125970000
C         1.27731333900000    2.81654555900000   -0.23274829400000
C         0.46960722540000    3.69985366740000    0.33818529340000
C         2.24622659340000    0.51450363430000   -0.12964258560000
N         3.50551171390000    1.03962918130000   -0.00905644140000
H         4.10245324000000   -3.62814426860000    0.33926258420000
H         2.43977979530000   -3.34521385910000    1.04837138940000
H         4.04718571530000   -1.47571531650000   -0.75159276710000
H         0.59946242990000   -2.45936724020000   -0.07858817410000
H        -0.99891033300000    1.49512496250000   -0.15460408570000
H         2.11117995600000    3.17686896450000   -0.82522251260000
H        -0.35829690550000    3.39993100530000    0.95746128140000
H         0.61806839560000    4.75929847170000    0.21977639930000
H         3.63295138850000    2.01472782290000   -0.21546736720000
H         4.28882046190000    0.43795454040000   -0.19332985040000
$end

$rem
BASIS = 6-31G*
GUI = 2
METHOD = B3LYP
PRINT_ORBITALS false
MOLDEN_FORMAT false
--------------------------------------------------------------

             Standard Nuclear Orientation (Angstroms)
    I     Atom           X                Y                Z
 ----------------------------------------------------------------
    1      C      -3.1084865647    -3.0207080515    -0.4046251391
    2      C      -3.0678935403    -1.8258969436     0.1688955367
    3      C      -1.9299572635    -0.9084173746     0.1130633498
    4      C      -0.6384722729    -1.4166510700     0.0974148037
    5      C       0.4520869193    -0.5659845043     0.0834916351
    6      O       1.7145693962    -1.2123780557     0.0762841452
    7      C       2.8149518042    -0.5074004807     0.0063898816
    8      F       2.9066730726     0.2918089075    -1.0755449152
    9      F       3.0327895137     0.3050019998     1.0614649113
   10      F       3.8581242210    -1.3333672855    -0.0478615248
   11      C       0.2819304981     0.8023350615     0.1048906367
   12      C      -1.0016749672     1.3433684762     0.1151948982
   13      C      -1.1605730850     2.7964093970     0.1687054839
   14      C      -0.3492731304     3.6706459131    -0.4110275917
   15      C      -2.1231982556     0.4904470367     0.1000681854
   16      N      -3.3824186482     1.0100825887    -0.0428995341
   17      H      -3.9653050252    -3.6649381117    -0.3078509086
   18      H      -2.2963556523    -3.3915046403    -1.0058552249
   19      H      -3.9256940136    -1.4919614415     0.7421841618
   20      H      -0.4692708817    -2.4798036753     0.1220156395
   21      H       1.1193019106     1.4793322401     0.1381951222
   22      H      -2.0010649881     3.1659210133     0.7459634138
   23      H       0.4853843106     3.3609979281    -1.0162933880
   24      H      -0.5012984346     4.7317890264    -0.3143410960
   25      H      -3.5141013430     1.9886255760     0.1435863683
   26      H      -4.1661426313     0.4101110553     0.1451231637
 ----------------------------------------------------------------

    9    -854.6445892376      2.90e-06  Convergence criterion met
 Total energy in the final basis set =     -854.6445892376

                    Orbital Energies (a.u.)
 --------------------------------------------------------------

 Alpha MOs
 -- Occupied --
-24.7211 -24.7193 -24.7184 -19.2129 -14.3537 -10.4726 -10.2543 -10.2383
-10.2008 -10.2002 -10.1997 -10.1993 -10.1951 -10.1946 -10.1872 -10.1859
 -1.3170  -1.2169  -1.2116  -1.1104  -0.9409  -0.8617  -0.8162  -0.7891
 -0.7472  -0.7297  -0.6887  -0.6565  -0.6358  -0.6102  -0.5930  -0.5928
 -0.5627  -0.5474  -0.5411  -0.5352  -0.4790  -0.4721  -0.4650  -0.4611
 -0.4561  -0.4524  -0.4402  -0.4308  -0.4277  -0.4157  -0.4097  -0.4015
 -0.3931  -0.3903  -0.3795  -0.3777  -0.3625  -0.3458  -0.3112  -0.3102
 -0.2794  -0.2323  -0.1987

          Ground-State Mulliken Net Atomic Charges

     Atom                 Charge (a.u.)
  ----------------------------------------
      1 C                    -0.335307
      2 C                    -0.143084
      3 C                     0.146459
      4 C                    -0.248117
      5 C                     0.341010
      6 O                    -0.525333
      7 C                     0.972172
      8 F                    -0.280591
      9 F                    -0.280441
     10 F                    -0.257163
     11 C                    -0.238810
     12 C                     0.132992
     13 C                    -0.143103
     14 C                    -0.337121
     15 C                     0.190785
     16 N                    -0.808902
     17 H                     0.144849
     18 H                     0.150869
     19 H                     0.124097
     20 H                     0.148584
     21 H                     0.161940
     22 H                     0.123921
     23 H                     0.153945
     24 H                     0.144722
     25 H                     0.330991
     26 H                     0.330637
  ----------------------------------------
  Sum of atomic charges =     0.000000

                    Cartesian Multipole Moments
 -----------------------------------------------------------------
    Charge (ESU x 10^10)
                 0.0000
    Dipole Moment (Debye)
         X      -4.2904      Y       1.0773      Z       0.6551
       Tot       4.4718
    Quadrupole Moments (Debye-Ang)
        XX     -82.2979     XY      -0.3031     YY     -81.5312
        XZ      -4.5772     YZ       1.6420     ZZ     -93.4812

 Total job time:  44.66s(wall), 44.24s(cpu)
        *  Thank you very much for using Q-Chem.  Have a nice day.  *
