 Q-Chem 5.2, Q-Chem, Inc., Pleasanton, CA (2019)
 Q-Chem 5.2.1 for Intel X86 EM64T Linux

User input:
--------------------------------------------------------------
$molecule
0 1
C         1.64760301450000   -2.94646067730000    1.49472459820000
C         1.52867340550000   -1.97362165860000    0.60101604400000
C         0.58620765180000   -0.86068373460000    0.69960403610000
C        -0.66058865510000   -1.05731231030000    1.28903910130000
C        -1.59881565480000   -0.04751264770000    1.41387039130000
C        -2.94471345910000   -0.35255821430000    2.00872374810000
C        -4.05510609370000   -0.31575985990000    0.95136869080000
C        -3.84157025920000   -1.36913265640000   -0.13239222410000
C        -4.93232058720000   -1.35750601760000   -1.20315627010000
C        -4.88127000990000   -0.12463391670000   -2.10334222960000
C        -5.91708472080000   -0.20114114820000   -3.21860307050000
C        -1.28345209720000    1.22611468910000    0.92065622660000
C        -2.21942543840000    2.34398394230000    1.03074112200000
C        -2.36058258050000    3.30249192880000    0.12509549350000
C        -0.03865314290000    1.42235213040000    0.32745910260000
C         0.89776552810000    0.41149160310000    0.19914779200000
C         2.24051398150000    0.71724479220000   -0.40077695870000
C         3.31780274670000    0.79241959050000    0.68733597310000
C         4.70516733410000    1.12499028920000    0.13935002550000
C         5.31187389880000   -0.00193735110000   -0.69407931820000
C         6.74594568590000    0.30990608590000   -1.11566383610000
C         7.34681862130000   -0.81076320610000   -1.95538459230000
H         2.35371642840000   -3.74942516740000    1.36641781650000
H         1.06071692930000   -2.97000442540000    2.39779872180000
H         2.17014815070000   -1.97932216420000   -0.27080273450000
H        -0.91165754110000   -2.04668746650000    1.64388509350000
H        -3.17904279240000    0.36974289950000    2.79522162750000
H        -2.91998744700000   -1.34397906140000    2.46644523720000
H        -4.07727713190000    0.67611147560000    0.49885792940000
H        -5.01807902690000   -0.48812358230000    1.43867467350000
H        -3.81774482140000   -2.35628590450000    0.33682677400000
H        -2.87068470530000   -1.20559791350000   -0.60578747170000
H        -5.91271336840000   -1.41514930070000   -0.72357281560000
H        -4.81896293480000   -2.24747457500000   -1.82756958170000
H        -3.88271873110000   -0.04091243540000   -2.53859348680000
H        -5.06053307650000    0.77464718730000   -1.51183685950000
H        -5.74416184820000   -1.07603664360000   -3.84193884960000
H        -5.86874122130000    0.68395248770000   -3.84884875370000
H        -6.92007998720000   -0.27172725110000   -2.80283088930000
H        -2.82971122900000    2.36589286120000    1.92493910930000
H        -1.80223912070000    3.30462957010000   -0.79625386950000
H        -3.05720122120000    4.11251622210000    0.26077669830000
H         0.21092922710000    2.41171525890000   -0.02908181480000
H         2.19601595550000    1.67533857280000   -0.92326499460000
H         2.50824127230000   -0.04841301320000   -1.13063372700000
H         3.35654876350000   -0.15968734550000    1.22133875430000
H         3.02477151240000    1.56129808980000    1.40679356540000
H         5.37010524030000    1.33141171940000    0.98194910430000
H         4.64951708600000    2.03383808450000   -0.46495309250000
H         4.71111253360000   -0.16654574680000   -1.59058493130000
H         5.30116746170000   -0.92582640940000   -0.11032118760000
H         7.35895103580000    0.46373475000000   -0.22447571340000
H         6.75851992340000    1.23982485590000   -1.68912649610000
H         7.35834573410000   -1.74300241120000   -1.39455356390000
H         8.36798166960000   -0.57047214030000   -2.24219520010000
H         6.76358673350000   -0.96435405260000   -2.86097987180000
$end

$rem
BASIS = 6-31G*
GUI = 2
METHOD = B3LYP
PRINT_ORBITALS false
MOLDEN_FORMAT false
--------------------------------------------------------------

             Standard Nuclear Orientation (Angstroms)
    I     Atom           X                Y                Z
 ----------------------------------------------------------------
    1      C       1.6340697597     3.0102851489    -1.3846585226
    2      C       1.5143414002     1.9947662121    -0.5398736997
    3      C       0.5724053008     0.8877194252    -0.6941329226
    4      C      -0.6737023080     1.1126377460    -1.2748437802
    5      C      -1.6114031302     0.1098930440    -1.4502528540
    6      C      -2.9566443287     0.4433341228    -2.0311894928
    7      C      -4.0683834844     0.3544123518    -0.9783577838
    8      C      -3.8566230464     1.3534502550     0.1560188320
    9      C      -4.9487462609     1.2890183960     1.2235030328
   10      C      -4.8984090129     0.0135121009     2.0622308748
   11      C      -5.9356857551     0.0349430092     3.1785506727
   12      C      -1.2962146520    -1.1862888819    -1.0196606840
   13      C      -2.2316417675    -2.2976954962    -1.1856362736
   14      C      -2.3736181786    -3.2994924684    -0.3282551282
   15      C      -0.0521093770    -1.4110015694    -0.4351757220
   16      C       0.8837782562    -0.4073684258    -0.2562411628
   17      C       2.2258638354    -0.7417658403     0.3297219723
   18      C       3.3045791747    -0.7631845100    -0.7593632143
   19      C       4.6913573775    -1.1218075896    -0.2265329696
   20      C       5.2965838041    -0.0369136876     0.6619316763
   21      C       6.7302243565    -0.3686236556     1.0695896081
   22      C       7.3296113222     0.7097092490     1.9640236790
   23      H       2.3397274278     3.8062039320    -1.2162206943
   24      H       1.0483379411     3.0778994407    -2.2862565494
   25      H       2.1546914939     1.9579095579     0.3320114256
   26      H      -0.9246715942     2.1181448948    -1.5810859303
   27      H      -3.1897003852    -0.2396098263    -2.8524571025
   28      H      -2.9316873025     1.4560100900    -2.4397236597
   29      H      -4.0907786701    -0.6584573440    -0.5750468302
   30      H      -5.0307906488     0.5501725545    -1.4578821697
   31      H      -3.8325502554     2.3624271564    -0.2642094013
   32      H      -2.8862885540     1.1671927484     0.6220923728
   33      H      -5.9285417659     1.3698123278     0.7460450218
   34      H      -4.8365137285     2.1473384159     1.8909433494
   35      H      -3.9003885535    -0.0911498643     2.4941552148
   36      H      -5.0765858895    -0.8557422049     1.4271164706
   37      H      -5.7638812255     0.8782786465     3.8442534198
   38      H      -5.8878337709    -0.8799699181     3.7647093394
   39      H      -6.9381705237     0.1255291003     2.7654322176
   40      H      -2.8407682791    -2.2759213338    -2.0806276513
   41      H      -1.8164602106    -3.3466308392     0.5926083850
   42      H      -3.0697690416    -4.1020982058    -0.5043922391
   43      H       0.1973712088    -2.4165802416    -0.1272420337
   44      H       2.1810394234    -1.7243359039     0.8045528437
   45      H       2.4923750579    -0.0127305467     1.0965857075
   46      H       3.3436685641     0.2139687108    -1.2459959757
   47      H       3.0127518108    -1.4959539786    -1.5160311558
   48      H       5.3574536519    -1.2864741892    -1.0773714371
   49      H       4.6352576735    -2.0592052185     0.3324142838
   50      H       4.6946097369     0.0833664715     1.5646455634
   51      H       5.2862950090     0.9144801432     0.1241556130
   52      H       7.3444316608    -0.4783940936     0.1727312440
   53      H       6.7423963780    -1.3255346524     1.5967894172
   54      H       7.3415235346     1.6683257934     1.4495854686
   55      H       8.3504911162     0.4559500596     2.2400396426
   56      H       6.7451589973     0.8185447006     2.8752990039
 ----------------------------------------------------------------

    8    -858.8044301648      4.97e-06  Convergence criterion met
 Total energy in the final basis set =     -858.8044301648

                    Orbital Energies (a.u.)
 --------------------------------------------------------------

 Alpha MOs
 -- Occupied --
-10.1870 -10.1867 -10.1858 -10.1858 -10.1841 -10.1836 -10.1788 -10.1786
-10.1771 -10.1768 -10.1761 -10.1757 -10.1734 -10.1721 -10.1717 -10.1714
-10.1702 -10.1681 -10.1670 -10.1668 -10.1654 -10.1632  -0.8682  -0.8200
 -0.8041  -0.7998  -0.7828  -0.7711  -0.7599  -0.7403  -0.7110  -0.7104
 -0.6845  -0.6486  -0.6335  -0.6267  -0.5948  -0.5853  -0.5777  -0.5731
 -0.5658  -0.5567  -0.5293  -0.4955  -0.4883  -0.4713  -0.4634  -0.4567
 -0.4509  -0.4464  -0.4379  -0.4322  -0.4302  -0.4228  -0.4164  -0.4100
 -0.4083  -0.4030  -0.3981  -0.3863  -0.3839  -0.3775  -0.3689  -0.3605
 -0.3586  -0.3539  -0.3491  -0.3467  -0.3389  -0.3352  -0.3325  -0.3287
 -0.3234  -0.3208  -0.3188  -0.3143  -0.3054  -0.3045  -0.3004  -0.2911
 -0.2613  -0.2332  -0.2091

          Ground-State Mulliken Net Atomic Charges

     Atom                 Charge (a.u.)
  ----------------------------------------
      1 C                    -0.340347
      2 C                    -0.134518
      3 C                     0.122835
      4 C                    -0.266917
      5 C                     0.128752
      6 C                    -0.352736
      7 C                    -0.267274
      8 C                    -0.254480
      9 C                    -0.247025
     10 C                    -0.251866
     11 C                    -0.440756
     12 C                     0.119579
     13 C                    -0.136539
     14 C                    -0.339393
     15 C                    -0.264598
     16 C                     0.127580
     17 C                    -0.357455
     18 C                    -0.260317
     19 C                    -0.250977
     20 C                    -0.251461
     21 C                    -0.248278
     22 C                    -0.441116
     23 H                     0.140308
     24 H                     0.143868
     25 H                     0.134880
     26 H                     0.122135
     27 H                     0.139495
     28 H                     0.138088
     29 H                     0.154887
     30 H                     0.125979
     31 H                     0.120366
     32 H                     0.144284
     33 H                     0.123426
     34 H                     0.124519
     35 H                     0.132003
     36 H                     0.138462
     37 H                     0.140445
     38 H                     0.139372
     39 H                     0.140284
     40 H                     0.135932
     41 H                     0.143805
     42 H                     0.140715
     43 H                     0.120916
     44 H                     0.137567
     45 H                     0.146144
     46 H                     0.147022
     47 H                     0.134305
     48 H                     0.128768
     49 H                     0.125812
     50 H                     0.130246
     51 H                     0.128584
     52 H                     0.130767
     53 H                     0.130437
     54 H                     0.141313
     55 H                     0.141282
     56 H                     0.140889
  ----------------------------------------
  Sum of atomic charges =     0.000000

                    Cartesian Multipole Moments
 -----------------------------------------------------------------
    Charge (ESU x 10^10)
                 0.0000
    Dipole Moment (Debye)
         X       0.2371      Y      -0.1164      Z      -0.0703
       Tot       0.2733
    Quadrupole Moments (Debye-Ang)
        XX    -136.1819     XY       1.5713     YY    -135.0314
        XZ       4.0888     YZ      -2.3214     ZZ    -138.5397

 Total job time:  121.60s(wall), 121.27s(cpu)
        *  Thank you very much for using Q-Chem.  Have a nice day.  *
