 Q-Chem 5.2, Q-Chem, Inc., Pleasanton, CA (2019)
 Q-Chem 5.2.1 for Intel X86 EM64T Linux

User input:
--------------------------------------------------------------
$molecule
0 1
C         4.00873158380000   -0.49730865980000   -0.02546984620000
C         3.03192161220000    0.40153770670000   -0.03778087630000
C         1.61833338450000    0.04931384410000   -0.00252881860000
C         0.64567516870000    1.05180102030000   -0.01063100890000
C        -0.69641086570000    0.70160101560000    0.01512452580000
O        -1.72259922130000    1.58908472970000    0.00216881450000
C        -1.42859349460000    2.96467542600000   -0.02488488910000
C        -1.03730993650000   -0.66938191630000    0.04835053870000
C        -2.43446356200000   -1.07148833840000    0.08140990440000
C        -2.90006303910000   -2.29587557150000   -0.13736790210000
C         0.02494354110000   -1.57270348640000    0.06825082470000
N         1.29715396360000   -1.24333053610000    0.04147837090000
H         5.04695384500000   -0.21422310130000   -0.05271526910000
H         3.77655497720000   -1.54729624830000    0.01269585450000
H         3.25076469290000    1.46111054010000   -0.07548244990000
H         0.95757678920000    2.08409547410000   -0.03896881250000
H        -2.39265413150000    3.47091015300000   -0.02319539750000
H        -0.87797422240000    3.23977141480000   -0.93002921240000
H        -0.85775544950000    3.27118064360000    0.85743209280000
H        -3.12506433300000   -0.26604573270000    0.29156669640000
H        -2.26046097530000   -3.12762806290000   -0.37808461660000
H        -3.95449671240000   -2.50728616730000   -0.09074269230000
H        -0.16928390800000   -2.63528121460000    0.12088281730000
$end

$rem
BASIS = 6-31G*
GUI = 2
METHOD = B3LYP
PRINT_ORBITALS false
MOLDEN_FORMAT false
--------------------------------------------------------------

             Standard Nuclear Orientation (Angstroms)
    I     Atom           X                Y                Z
 ----------------------------------------------------------------
    1      C       4.0064313872    -0.5600922477    -0.0226285857
    2      C       3.0395486328     0.3494070666    -0.0361492746
    3      C       1.6221756309     0.0127655998    -0.0006199810
    4      C       0.6605817047     1.0258589931    -0.0100585218
    5      C      -0.6852702833     0.6904446868     0.0159796051
    6      O      -1.7016531189     1.5891233001     0.0018227663
    7      C      -1.3925618321     2.9613694162    -0.0268862435
    8      C      -1.0412020992    -0.6766715968     0.0508501305
    9      C      -2.4426888692    -1.0633756826     0.0842497282
   10      C      -2.9216801012    -2.2828457505    -0.1330768723
   11      C       0.0110691564    -1.5915744763     0.0719749184
   12      N       1.2868212100    -1.2762201451     0.0449377695
   13      H       5.0477013008    -0.2884544673    -0.0501075489
   14      H       3.7627387665    -1.6074202034     0.0167997457
   15      H       3.2700137095     1.4064666207    -0.0751266987
   16      H       0.9837993629     2.0546317822    -0.0396285257
   17      H      -2.3510072967     3.4781582793    -0.0259233817
   18      H      -0.8388689004     3.2292927927    -0.9323070483
   19      H      -0.8184782502     3.2626729709     0.8551165839
   20      H      -3.1244263888    -0.2501431160     0.2933426266
   21      H      -2.2912240993    -3.1218642854    -0.3727029800
   22      H      -3.9783754929    -2.4826111844    -0.0863078412
   23      H      -0.1948161927    -2.6518906262     0.1258891326
 ----------------------------------------------------------------

    9    -517.6103411542      2.43e-06  Convergence criterion met
 Total energy in the final basis set =     -517.6103411542

                    Orbital Energies (a.u.)
 --------------------------------------------------------------

 Alpha MOs
 -- Occupied --
-19.1938 -14.3137 -10.2620 -10.2504 -10.2230 -10.2148 -10.1947 -10.1914
-10.1870 -10.1842 -10.1769 -10.1758  -1.0846  -0.9434  -0.8224  -0.7959
 -0.7688  -0.7331  -0.7113  -0.6460  -0.6240  -0.5704  -0.5692  -0.5297
 -0.5107  -0.4840  -0.4730  -0.4649  -0.4523  -0.4364  -0.4257  -0.4129
 -0.4079  -0.3808  -0.3693  -0.3562  -0.3538  -0.3330  -0.3142  -0.2739
 -0.2499  -0.2474  -0.2103

          Ground-State Mulliken Net Atomic Charges

     Atom                 Charge (a.u.)
  ----------------------------------------
      1 C                    -0.332042
      2 C                    -0.106709
      3 C                     0.321210
      4 C                    -0.258577
      5 C                     0.356131
      6 O                    -0.500892
      7 C                    -0.218468
      8 C                     0.083609
      9 C                    -0.105868
     10 C                    -0.349669
     11 C                    -0.021026
     12 N                    -0.496797
     13 H                     0.139890
     14 H                     0.172485
     15 H                     0.120563
     16 H                     0.133208
     17 H                     0.174755
     18 H                     0.157957
     19 H                     0.157601
     20 H                     0.148184
     21 H                     0.143915
     22 H                     0.143522
     23 H                     0.137016
  ----------------------------------------
  Sum of atomic charges =     0.000000

                    Cartesian Multipole Moments
 -----------------------------------------------------------------
    Charge (ESU x 10^10)
                 0.0000
    Dipole Moment (Debye)
         X      -0.7503      Y       2.8354      Z      -0.0413
       Tot       2.9333
    Quadrupole Moments (Debye-Ang)
        XX     -67.5065     XY       1.5555     YY     -59.8867
        XZ      -0.4078     YZ       0.2507     ZZ     -73.5286

 Total job time:  27.65s(wall), 27.55s(cpu)
        *  Thank you very much for using Q-Chem.  Have a nice day.  *
