 Q-Chem 5.2, Q-Chem, Inc., Pleasanton, CA (2019)
 Q-Chem 5.2.1 for Intel X86 EM64T Linux

User input:
--------------------------------------------------------------
$molecule
0 1
C        -3.70688437930000   -0.05200531950000   -0.59462321390000
C        -2.92258936510000    0.81204462940000    0.03760799000000
C        -1.46859758250000    0.75535425800000    0.10000286890000
C        -0.74492531450000    1.93932274610000    0.17258733570000
C         0.64309593120000    1.96504760580000    0.16911734260000
C         1.40540526930000    0.80472123270000    0.09039355900000
C         2.85788553690000    0.89120408200000    0.02996563170000
C         3.67208435040000    0.03923357230000   -0.58311592870000
C         0.68685543970000   -0.39839272230000    0.08564531340000
N         1.13797244610000   -1.68502207720000    0.12984369090000
C         0.06948073510000   -2.53286744050000    0.19555345840000
C        -1.08750042540000   -1.81881047490000    0.16418558930000
C        -0.73020229840000   -0.44230494280000    0.09501894070000
H        -4.77679004290000    0.07060328540000   -0.61613280930000
H        -3.31080240370000   -0.89391487620000   -1.13483516510000
H        -3.36510534230000    1.67783499370000    0.51693719140000
H        -1.28184496470000    2.87690498670000    0.20937266250000
H         1.15032747170000    2.91876595450000    0.20472091450000
H         3.27863973880000    1.76994517020000    0.50456347350000
H         3.31219493580000   -0.81227747750000   -1.13638888240000
H         4.73806356730000    0.19184463890000   -0.59451416980000
H         2.10298812980000   -1.95342594610000    0.21559675810000
H         0.21605364780000   -3.59471363540000    0.25367083530000
H        -2.07756402430000   -2.22235388520000    0.22138462810000
$end

$rem
BASIS = 6-31G*
GUI = 2
METHOD = B3LYP
PRINT_ORBITALS false
MOLDEN_FORMAT false
--------------------------------------------------------------

             Standard Nuclear Orientation (Angstroms)
    I     Atom           X                Y                Z
 ----------------------------------------------------------------
    1      C       3.7069270984    -0.0537421725     0.5864942244
    2      C       2.9218653608     0.8147367378    -0.0386775353
    3      C       1.4679177223     0.7573304313    -0.1014453893
    4      C       0.7432458853     1.9412385878    -0.1644028571
    5      C      -0.6447962657     1.9657671667    -0.1606447410
    6      C      -1.4061249828     0.8042009224    -0.0912711306
    7      C      -2.8586735297     0.8889702606    -0.0300614619
    8      C      -3.6721164392     0.0313810298     0.5761512081
    9      C      -0.6865638628    -0.3983073203    -0.0963023276
   10      N      -1.1366021220    -1.6849157369    -0.1508870740
   11      C      -0.0674023964    -2.5313025699    -0.2235186494
   12      C       1.0889801968    -1.8165500965    -0.1864390186
   13      C       0.7305296766    -0.4409504548    -0.1061127649
   14      H       4.7767307135     0.0695880822     0.6089338120
   15      H       3.3115877249    -0.9003293476     1.1198969990
   16      H       3.3636225715     1.6847502068    -0.5110089431
   17      H       1.2793749184     2.8795390762    -0.1936292547
   18      H      -1.1528315389     2.9193155196    -0.1884986208
   19      H      -3.2801967717     1.7711697087    -0.4975070739
   20      H      -3.3114757790    -0.8242772525     1.1224932605
   21      H      -4.7382228150     0.1829982861     0.5888457479
   22      H      -2.1013973919    -1.9534282390    -0.2387541255
   23      H      -0.2130865017    -3.5927664855    -0.2902201287
   24      H       2.0793789427    -2.2187845305    -0.2469594955
 ----------------------------------------------------------------

    9    -518.6123104601      1.90e-06  Convergence criterion met
 Total energy in the final basis set =     -518.6123104601

                    Orbital Energies (a.u.)
 --------------------------------------------------------------

 Alpha MOs
 -- Occupied --
-14.3771 -10.2131 -10.2127 -10.1944 -10.1901 -10.1860 -10.1827 -10.1818
-10.1777 -10.1775 -10.1727 -10.1714 -10.1669  -0.9851  -0.8498  -0.8111
 -0.7679  -0.7609  -0.7259  -0.7074  -0.6332  -0.6024  -0.5913  -0.5824
 -0.5634  -0.5029  -0.4869  -0.4794  -0.4573  -0.4515  -0.4287  -0.4241
 -0.4222  -0.4035  -0.3892  -0.3827  -0.3586  -0.3498  -0.3423  -0.3260
 -0.3110  -0.2637  -0.2503  -0.2177  -0.1902

          Ground-State Mulliken Net Atomic Charges

     Atom                 Charge (a.u.)
  ----------------------------------------
      1 C                    -0.347470
      2 C                    -0.120909
      3 C                     0.104287
      4 C                    -0.199031
      5 C                    -0.225177
      6 C                     0.182291
      7 C                    -0.118087
      8 C                    -0.370553
      9 C                     0.222187
     10 N                    -0.684530
     11 C                     0.047974
     12 C                    -0.230264
     13 C                     0.056466
     14 H                     0.138478
     15 H                     0.148432
     16 H                     0.128940
     17 H                     0.118121
     18 H                     0.121335
     19 H                     0.136108
     20 H                     0.138139
     21 H                     0.144458
     22 H                     0.327979
     23 H                     0.147253
     24 H                     0.133573
  ----------------------------------------
  Sum of atomic charges =     0.000000

                    Cartesian Multipole Moments
 -----------------------------------------------------------------
    Charge (ESU x 10^10)
                 0.0000
    Dipole Moment (Debye)
         X      -1.4130      Y      -1.2100      Z      -0.2879
       Tot       1.8824
    Quadrupole Moments (Debye-Ang)
        XX     -67.2843     XY       2.9100     YY     -66.0316
        XZ       0.5825     YZ      -1.4386     ZZ     -80.0663

 Total job time:  35.80s(wall), 35.67s(cpu)
        *  Thank you very much for using Q-Chem.  Have a nice day.  *
