 Q-Chem 5.2, Q-Chem, Inc., Pleasanton, CA (2019)
 Q-Chem 5.2.1 for Intel X86 EM64T Linux

User input:
--------------------------------------------------------------
$molecule
0 1
C        -4.22042865900000   -1.30063557290000    0.06322694790000
C        -3.00617337310000   -1.81511169510000   -0.10881978110000
C        -1.78900720260000   -1.04578224200000   -0.08157168200000
C        -0.48708881180000   -1.44398720890000   -0.23942463370000
C         0.31830036010000   -0.28320322170000   -0.11277814520000
C         1.77982884780000   -0.38587848060000   -0.18900331800000
O         2.35165542250000   -1.33493018230000   -0.66845138270000
O         2.43280343900000    0.64956876990000    0.36412957430000
C         3.84973610240000    0.55832088300000    0.35211329680000
C        -0.56386820580000    0.77132359630000    0.10457044900000
C        -0.47689015670000    2.20164232470000    0.25936850950000
C         0.58659486900000    2.98149437760000    0.09233089690000
O        -1.82448494540000    0.29020030510000    0.12408595140000
H        -5.10309910840000   -1.91423603260000    0.03463768430000
H        -4.36133478760000   -0.24768650390000    0.23806202000000
H        -2.86286634020000   -2.87172543900000   -0.28433957720000
H        -0.12146928900000   -2.43443440660000   -0.41549978260000
H         4.21480072730000    1.43533602330000    0.88063163950000
H         4.22149614620000    0.54454287390000   -0.67490034900000
H         4.17534080350000   -0.35560147070000    0.85297171980000
H        -1.43488654290000    2.64178203120000    0.50912642680000
H         1.55079084230000    2.58910879090000   -0.16788710340000
H         0.50924922020000    4.04730989400000    0.21975110040000
$end

$rem
BASIS = 6-31G*
GUI = 2
METHOD = B3LYP
PRINT_ORBITALS false
MOLDEN_FORMAT false
--------------------------------------------------------------

             Standard Nuclear Orientation (Angstroms)
    I     Atom           X                Y                Z
 ----------------------------------------------------------------
    1      C       4.4236918675     0.0465752289     0.1425057390
    2      C       3.4087448833     0.9022540572     0.0625181242
    3      C       2.0229445062     0.5132118819     0.0144842438
    4      C       0.8906907068     1.2814623586    -0.0646914159
    5      C      -0.2132615140     0.3907701616    -0.0729024246
    6      C      -1.5838900115     0.9129699632    -0.1061122899
    7      O      -1.8541166963     2.0389960154    -0.4475768990
    8      O      -2.5136873378     0.0429251348     0.3216513721
    9      C      -3.8459444170     0.5333035494     0.3497374137
   10      C       0.3291733294    -0.8896328659    -0.0110871529
   11      C      -0.1630876490    -2.2439423691    -0.0404841595
   12      C      -1.4011058373    -2.6614593667    -0.2855590670
   13      O       1.6739651610    -0.7928011868     0.0452475249
   14      H       5.4446239364     0.3827611238     0.1757735494
   15      H       4.2566967720    -1.0164566166     0.1771397536
   16      H       3.5744909900     1.9695377344     0.0277260465
   17      H       0.8245330883     2.3490448013    -0.1041457237
   18      H      -4.4543070218    -0.2647373169     0.7678104838
   19      H      -4.1802474711     0.7847812766    -0.6592981719
   20      H      -3.9074542707     1.4292368558     0.9707460274
   21      H       0.6259219589    -2.9663211788     0.1312474584
   22      H      -2.2094333610    -1.9813395595    -0.4737010177
   23      H      -1.6318488240    -3.7125424222    -0.2983284555
 ----------------------------------------------------------------

    9    -612.7067140229      6.18e-06  Convergence criterion met
 Total energy in the final basis set =     -612.7067140229

                    Orbital Energies (a.u.)
 --------------------------------------------------------------

 Alpha MOs
 -- Occupied --
-19.2263 -19.1949 -19.1323 -10.3170 -10.2619 -10.2472 -10.2412 -10.2030
-10.2019 -10.2007 -10.1915 -10.1873 -10.1848  -1.1326  -1.1106  -1.0171
 -0.8258  -0.8208  -0.7834  -0.7424  -0.7188  -0.6493  -0.6209  -0.5953
 -0.5751  -0.5575  -0.5126  -0.4884  -0.4842  -0.4786  -0.4716  -0.4646
 -0.4431  -0.4317  -0.4216  -0.4085  -0.4000  -0.3834  -0.3706  -0.3656
 -0.3533  -0.3250  -0.3040  -0.2962  -0.2785  -0.2714  -0.2039

          Ground-State Mulliken Net Atomic Charges

     Atom                 Charge (a.u.)
  ----------------------------------------
      1 C                    -0.354280
      2 C                    -0.106747
      3 C                     0.335330
      4 C                    -0.223319
      5 C                     0.003524
      6 C                     0.561124
      7 O                    -0.486200
      8 O                    -0.455219
      9 C                    -0.220483
     10 C                     0.316982
     11 C                    -0.138134
     12 C                    -0.335205
     13 O                    -0.483478
     14 H                     0.147643
     15 H                     0.156921
     16 H                     0.144971
     17 H                     0.164020
     18 H                     0.164253
     19 H                     0.169317
     20 H                     0.173769
     21 H                     0.146989
     22 H                     0.171530
     23 H                     0.146693
  ----------------------------------------
  Sum of atomic charges =     0.000000

                    Cartesian Multipole Moments
 -----------------------------------------------------------------
    Charge (ESU x 10^10)
                 0.0000
    Dipole Moment (Debye)
         X      -0.3682      Y      -1.3581      Z       0.5866
       Tot       1.5245
    Quadrupole Moments (Debye-Ang)
        XX     -61.2564     XY       5.2110     YY     -73.6115
        XZ      -1.0831     YZ       2.0542     ZZ     -77.3550

 Total job time:  30.23s(wall), 30.13s(cpu)
        *  Thank you very much for using Q-Chem.  Have a nice day.  *
