 Q-Chem 5.2, Q-Chem, Inc., Pleasanton, CA (2019)
 Q-Chem 5.2.1 for Intel X86 EM64T Linux

User input:
--------------------------------------------------------------
$molecule
0 1
C        -6.18968207930000   -0.44585494610000   -0.22084772600000
C        -5.12334491120000   -1.23802622830000   -0.20834163620000
C        -3.74579298040000   -0.83792226500000    0.02894115970000
C        -3.35315044860000    0.46572810410000    0.32003765760000
C        -2.02710554070000    0.78893548980000    0.52595464010000
C        -1.00827300640000   -0.16841640780000    0.47196109790000
C        -1.41415459240000   -1.48166227970000    0.20579755350000
C        -2.73767360380000   -1.80075363730000   -0.02295521430000
S        -0.27362630540000   -2.83373318650000    0.22787525440000
C         1.23984216870000   -1.96811686870000   -0.07448999810000
C         2.28881165540000   -2.72674133400000   -0.55278971220000
C         3.55697630060000   -2.17883316410000   -0.74385806810000
C         4.69454024190000   -2.94299462410000   -1.22936530700000
C         4.70481380410000   -4.22911791260000   -1.56153988160000
C         3.70949833040000   -0.82912190800000   -0.43696247090000
C         2.65405962860000   -0.06458304650000    0.01883258890000
C         1.37995693500000   -0.60476191360000    0.21550164330000
N         0.32509547330000    0.17383118010000    0.68610126530000
C         0.62130979490000    1.45328961000000    1.29792396470000
C         0.71242070400000    2.63289961840000    0.31860821610000
C         0.85348160820000    3.95108400820000    1.07605340280000
C         1.06255756760000    5.15562265740000    0.15710553040000
C        -0.09643480200000    5.44593800470000   -0.79841924150000
C        -1.40200667580000    5.77171408310000   -0.08239312690000
H        -7.17454089340000   -0.83739319920000   -0.40868911890000
H        -6.13041603680000    0.61503536630000   -0.04833569550000
H        -5.25535544640000   -2.29720205150000   -0.39335956330000
H        -4.08907911080000    1.25150897060000    0.38565780050000
H        -1.79701815310000    1.81833977920000    0.73928603450000
H        -2.98562257970000   -2.83293238610000   -0.22337422300000
H         2.10468989990000   -3.77028249150000   -0.75258348190000
H         5.61098566020000   -2.37137431410000   -1.31714013620000
H         3.83089437210000   -4.85400089710000   -1.49837344730000
H         5.60223949110000   -4.70834253990000   -1.91318544420000
H         4.67501703520000   -0.36007212380000   -0.56187725490000
H         2.84520081260000    0.97411493700000    0.22552346880000
H         1.56154987160000    1.35496732870000    1.84805144120000
H        -0.15822738790000    1.65570008540000    2.03862908880000
H        -0.17877645530000    2.65362250140000   -0.30800720520000
H         1.56598037620000    2.50549869270000   -0.34889090950000
H         1.71279119230000    3.88019507650000    1.74851176880000
H        -0.02917226850000    4.11184706100000    1.69769897150000
H         1.96782529120000    4.99417674890000   -0.43359545440000
H         1.22966859700000    6.03773806800000    0.78012772220000
H        -0.24875327510000    4.59696477970000   -1.46701802320000
H         0.18609315870000    6.29929104950000   -1.41956704940000
H        -1.78475050020000    4.90697154780000    0.45357379520000
H        -2.15739610240000    6.08181276800000   -0.80081217550000
H        -1.25410411600000    6.58074145940000    0.62988876950000
$end

$rem
BASIS = 6-31G*
GUI = 2
METHOD = B3LYP
PRINT_ORBITALS false
MOLDEN_FORMAT false
--------------------------------------------------------------

             Standard Nuclear Orientation (Angstroms)
    I     Atom           X                Y                Z
 ----------------------------------------------------------------
    1      C       3.7794539059    -4.8980380336     0.6140342447
    2      C       2.4810248501    -4.6599433598     0.4651731954
    3      C       1.8609607519    -3.3802928184     0.1617747203
    4      C       2.5718709277    -2.2031813718    -0.0559980462
    5      C       1.9276421387    -1.0136757733    -0.3304167305
    6      C       0.5345184495    -0.9230947637    -0.4223904148
    7      C      -0.1717684995    -2.1164246194    -0.2292060070
    8      C       0.4713506068    -3.3012795807     0.0680585765
    9      S      -1.9263783670    -2.2064527556    -0.4356692797
   10      C      -2.3568858928    -0.5097582367    -0.1764509209
   11      C      -3.6704019426    -0.2615583392     0.1666104114
   12      C      -4.1535237413     1.0390064129     0.3083026836
   13      C      -5.5319826827     1.3481473437     0.6518060580
   14      C      -6.5080814767     0.4773493661     0.8831080983
   15      C      -3.2444246895     2.0721514842     0.0954211964
   16      C      -1.9245682732     1.8232588367    -0.2243461422
   17      C      -1.4312131491     0.5236352168    -0.3705951332
   18      N      -0.0999916022     0.2847646164    -0.7040526905
   19      C       0.6923231551     1.3749844807    -1.2357873862
   20      C       1.3852210572     2.2468130195    -0.1781259086
   21      C       2.3262492549     3.2501616408    -0.8406883211
   22      C       2.9634495283     4.2252073006     0.1504489446
   23      C       3.8617000145     3.5765121915     1.2053966319
   24      C       5.0598230713     2.8453343651     0.6110722302
   25      H       4.1442142975    -5.8849418386     0.8409796403
   26      H       4.5280094972    -4.1302740461     0.5193552842
   27      H       1.7818120060    -5.4796837881     0.5775959160
   28      H       3.6494249491    -2.2042380944    -0.0088304346
   29      H       2.5415741941    -0.1426070924    -0.4802515241
   30      H      -0.1311184064    -4.1872887710     0.2061101825
   31      H      -4.3244081025    -1.1086965165     0.2986307502
   32      H      -5.7482257142     2.4079756043     0.7176043375
   33      H      -6.3619870448    -0.5877870867     0.8346863020
   34      H      -7.5024548662     0.8056542563     1.1323492869
   35      H      -3.5723960829     3.0977820913     0.1868235789
   36      H      -1.2781277632     2.6722195849    -0.3640955183
   37      H       0.0397907029     1.9948756096    -1.8573139750
   38      H       1.4461454128     0.9438727705    -1.9015102998
   39      H       1.9400793829     1.6097443879     0.5100488496
   40      H       0.6432709186     2.7832397542     0.4152597523
   41      H       1.7613860961     3.8296893399    -1.5760220642
   42      H       3.1074088948     2.7152504229    -1.3838507685
   43      H       2.1696675552     4.7761802083     0.6611750165
   44      H       3.5559225865     4.9497872143    -0.4136166271
   45      H       3.2785006932     2.8853596172     1.8162709689
   46      H       4.2249625197     4.3654818974     1.8682881935
   47      H       4.7474497756     1.9753538114     0.0391545880
   48      H       5.7231087860     2.5050598013     1.4030101012
   49      H       5.6215606123     3.5059940628    -0.0459861094
 ----------------------------------------------------------------

    9   -1306.3070852433      3.33e-06  Convergence criterion met
 Total energy in the final basis set =    -1306.3070852433

                    Orbital Energies (a.u.)
 --------------------------------------------------------------

 Alpha MOs
 -- Occupied --
-88.8866 -14.3755 -10.2390 -10.2389 -10.2280 -10.2196 -10.2187 -10.1907
-10.1905 -10.1901 -10.1898 -10.1890 -10.1889 -10.1883 -10.1874 -10.1872
-10.1870 -10.1867 -10.1866 -10.1821 -10.1811 -10.1755 -10.1747 -10.1747
 -7.9480  -5.9130  -5.9092  -5.9031  -0.9817  -0.8709  -0.8677  -0.8220
 -0.8124  -0.7984  -0.7771  -0.7712  -0.7577  -0.7353  -0.7278  -0.7130
 -0.6830  -0.6623  -0.6444  -0.6234  -0.6132  -0.6017  -0.5918  -0.5676
 -0.5620  -0.5523  -0.5350  -0.5154  -0.4909  -0.4856  -0.4766  -0.4727
 -0.4648  -0.4565  -0.4510  -0.4431  -0.4404  -0.4343  -0.4247  -0.4179
 -0.4131  -0.4093  -0.4000  -0.3942  -0.3919  -0.3871  -0.3801  -0.3755
 -0.3697  -0.3648  -0.3559  -0.3514  -0.3454  -0.3383  -0.3357  -0.3318
 -0.3256  -0.3216  -0.3161  -0.3050  -0.3025  -0.2645  -0.2590  -0.2256
 -0.2167  -0.1722

          Ground-State Mulliken Net Atomic Charges

     Atom                 Charge (a.u.)
  ----------------------------------------
      1 C                    -0.357371
      2 C                    -0.113330
      3 C                     0.201238
      4 C                    -0.205186
      5 C                    -0.179259
      6 C                     0.337455
      7 C                    -0.112604
      8 C                    -0.266021
      9 S                     0.173770
     10 C                    -0.110384
     11 C                    -0.253753
     12 C                     0.203734
     13 C                    -0.116718
     14 C                    -0.356368
     15 C                    -0.218478
     16 C                    -0.174758
     17 C                     0.336430
     18 N                    -0.603991
     19 C                    -0.172749
     20 C                    -0.278420
     21 C                    -0.266325
     22 C                    -0.252148
     23 C                    -0.256526
     24 C                    -0.445746
     25 H                     0.142626
     26 H                     0.139040
     27 H                     0.126936
     28 H                     0.126723
     29 H                     0.136159
     30 H                     0.141110
     31 H                     0.140623
     32 H                     0.124080
     33 H                     0.142215
     34 H                     0.142082
     35 H                     0.127088
     36 H                     0.131785
     37 H                     0.161446
     38 H                     0.161099
     39 H                     0.157390
     40 H                     0.148585
     41 H                     0.132453
     42 H                     0.137337
     43 H                     0.129761
     44 H                     0.130228
     45 H                     0.139485
     46 H                     0.135152
     47 H                     0.142716
     48 H                     0.147089
     49 H                     0.144302
  ----------------------------------------
  Sum of atomic charges =     0.000000

                    Cartesian Multipole Moments
 -----------------------------------------------------------------
    Charge (ESU x 10^10)
                 0.0000
    Dipole Moment (Debye)
         X       1.7359      Y       2.3590      Z      -0.1471
       Tot       2.9326
    Quadrupole Moments (Debye-Ang)
        XX    -144.3899     XY       0.2447     YY    -141.6515
        XZ      -2.0162     YZ      -2.7648     ZZ    -156.5525

 Total job time:  137.40s(wall), 136.84s(cpu)
        *  Thank you very much for using Q-Chem.  Have a nice day.  *
