 Q-Chem 5.2, Q-Chem, Inc., Pleasanton, CA (2019)
 Q-Chem 5.2.1 for Intel X86 EM64T Linux

User input:
--------------------------------------------------------------
$molecule
0 1
C         4.83629200940000    1.34275157140000   -0.11380359460000
C         4.50415697140000    0.05739955280000   -0.02235940200000
C         3.16062566210000   -0.44602490960000    0.01720520370000
C         2.77008163950000   -1.76064430000000    0.10480858900000
C         1.38289960120000   -1.93667570290000    0.12052304440000
C         0.68515528050000   -0.75214785930000    0.04533494610000
C        -0.72822269080000   -0.56630017420000    0.03598280510000
C        -1.71050272970000   -1.53141190190000    0.08046314830000
C        -3.00599559440000   -1.00772015580000    0.05421021030000
C        -3.04458160580000    0.36492467860000   -0.01019954590000
C        -4.16862099770000    1.25942309700000   -0.05304003400000
C        -5.44756868630000    0.88942961800000   -0.03981631290000
S        -1.43340744910000    1.01907852430000   -0.03931178750000
S         1.77348755390000    0.60077724960000   -0.04619838350000
H         5.86295912330000    1.66161667950000   -0.14016081370000
H         4.08492028670000    2.11353938960000   -0.16514771660000
H         5.27184725220000   -0.70478717450000    0.02789415600000
H         3.47284304820000   -2.57386767720000    0.15590202220000
H         0.90528544050000   -2.89735235900000    0.18567697840000
H        -1.49600390030000   -2.58364017680000    0.12907696280000
H        -3.88897026100000   -1.62013110260000    0.08159677440000
H        -3.91386558250000    2.31039136460000   -0.09936496060000
H        -5.74551112710000   -0.14359004270000    0.00520668020000
H        -6.23935146670000    1.61644862030000   -0.07418639030000
$end

$rem
BASIS = 6-31G*
GUI = 2
METHOD = B3LYP
PRINT_ORBITALS false
MOLDEN_FORMAT false
--------------------------------------------------------------

             Standard Nuclear Orientation (Angstroms)
    I     Atom           X                Y                Z
 ----------------------------------------------------------------
    1      C       4.7479841601    -1.6635464655     0.0167180906
    2      C       4.4980308166    -0.3565985012     0.0020252249
    3      C       3.1891294884     0.2323243322    -0.0029883138
    4      C       2.8827405912     1.5719023571    -0.0119150924
    5      C       1.5095140836     1.8360176871    -0.0121549289
    6      C       0.7380552011     0.6956708791    -0.0039726600
    7      C      -0.6842637852     0.5994450617    -0.0003110221
    8      C      -1.6033629751     1.6257490045     0.0155041210
    9      C      -2.9294589722     1.1844856504     0.0157924105
   10      C      -3.0550153442    -0.1843713716    -0.0002509417
   11      C      -4.2335181146    -1.0068845561    -0.0057794022
   12      C      -5.4864281226    -0.5565302650     0.0074401255
   13      S      -1.4885680265    -0.9397899625    -0.0154986652
   14      S       1.7383986066    -0.7264755628     0.0040527508
   15      H       5.7523632665    -2.0477638915     0.0205394985
   16      H       3.9492438013    -2.3869034244     0.0255552021
   17      H       5.3125114182     0.3570923544    -0.0062878283
   18      H       3.6356595128     2.3405989553    -0.0178341314
   19      H       1.0937843896     2.8271687912    -0.0191025690
   20      H      -1.3225675016     2.6633222151     0.0278786065
   21      H      -3.7718196534     1.8521157431     0.0276243929
   22      H      -4.0459238606    -2.0727751172    -0.0220989419
   23      H      -5.7182607255     0.4941363134     0.0241665269
   24      H      -6.3227220904    -1.2327264125     0.0020482056
 ----------------------------------------------------------------

    9   -1259.6163628271      6.37e-06  Convergence criterion met
 Total energy in the final basis set =    -1259.6163628271

                    Orbital Energies (a.u.)
 --------------------------------------------------------------

 Alpha MOs
 -- Occupied --
-88.9088 -88.9058 -10.2281 -10.2275 -10.2207 -10.2189 -10.2005 -10.1986
-10.1945 -10.1932 -10.1924 -10.1923 -10.1838 -10.1818  -7.9707  -7.9678
 -5.9346  -5.9318  -5.9311  -5.9282  -5.9276  -5.9246  -0.9029  -0.8817
 -0.8070  -0.7879  -0.7543  -0.7393  -0.7318  -0.6918  -0.6269  -0.6065
 -0.5843  -0.5483  -0.5340  -0.5242  -0.5104  -0.4824  -0.4560  -0.4472
 -0.4269  -0.4152  -0.4097  -0.4073  -0.3835  -0.3818  -0.3762  -0.3646
 -0.3627  -0.3533  -0.3331  -0.3229  -0.2900  -0.2622  -0.2522  -0.2378
 -0.1852

          Ground-State Mulliken Net Atomic Charges

     Atom                 Charge (a.u.)
  ----------------------------------------
      1 C                    -0.376255
      2 C                    -0.058133
      3 C                    -0.129603
      4 C                    -0.150284
      5 C                    -0.110959
      6 C                    -0.161575
      7 C                    -0.161847
      8 C                    -0.109517
      9 C                    -0.133373
     10 C                    -0.120583
     11 C                    -0.092186
     12 C                    -0.341838
     13 S                     0.255000
     14 S                     0.258811
     15 H                     0.147229
     16 H                     0.156501
     17 H                     0.138913
     18 H                     0.140257
     19 H                     0.139101
     20 H                     0.140570
     21 H                     0.140519
     22 H                     0.138893
     23 H                     0.142344
     24 H                     0.148015
  ----------------------------------------
  Sum of atomic charges =     0.000000

                    Cartesian Multipole Moments
 -----------------------------------------------------------------
    Charge (ESU x 10^10)
                 0.0000
    Dipole Moment (Debye)
         X      -0.1118      Y       1.3356      Z       0.0055
       Tot       1.3403
    Quadrupole Moments (Debye-Ang)
        XX     -81.5060     XY       1.0133     YY     -86.1034
        XZ      -0.0594     YZ       0.0335     ZZ    -101.8751

 Total job time:  36.08s(wall), 35.61s(cpu)
        *  Thank you very much for using Q-Chem.  Have a nice day.  *
