 Q-Chem 5.2, Q-Chem, Inc., Pleasanton, CA (2019)
 Q-Chem 5.2.1 for Intel X86 EM64T Linux

User input:
--------------------------------------------------------------
$molecule
0 1
C         3.51637363230000   -1.56318390420000    0.39394915910000
C         3.17893581500000   -0.29794842720000    0.17514415970000
C         1.82666757550000    0.22467606080000    0.02872978120000
C         1.64348927060000    1.53004251870000   -0.43184795140000
C         0.37776923470000    2.04877241110000   -0.58766192970000
C        -0.76068711520000    1.30647522050000   -0.26745543610000
C        -2.06233270410000    1.96172805220000   -0.41902736930000
C        -3.05692690800000    1.92882270480000    0.45700611170000
C        -0.58775335830000   -0.00847645370000    0.17887590600000
C        -1.76587724830000   -0.91106752110000    0.47376212350000
C        -1.52949384160000   -2.24610480080000   -0.01623859420000
N        -1.34153258030000   -3.30368310500000   -0.40743284610000
C         0.69018057950000   -0.52541480330000    0.32165259020000
H         4.54761192640000   -1.85886171890000    0.48306236630000
H         2.79092109850000   -2.35372578170000    0.48126273460000
H         3.96043565470000    0.44553790980000    0.07289958220000
H         2.50484634960000    2.13443282980000   -0.67785385000000
H         0.25321436840000    3.06083070580000   -0.94618908990000
H        -2.16205178480000    2.56616235750000   -1.31293709090000
H        -2.98736088450000    1.39750395560000    1.39145781410000
H        -3.97359173020000    2.46784510020000    0.28686951780000
H        -2.67371988480000   -0.52690813720000    0.00066171770000
H        -1.93801733020000   -0.97377507190000    1.55430114350000
H         0.79898557140000   -1.54118926380000    0.67137761160000
$end

$rem
BASIS = 6-31G*
GUI = 2
METHOD = B3LYP
PRINT_ORBITALS false
MOLDEN_FORMAT false
--------------------------------------------------------------

             Standard Nuclear Orientation (Angstroms)
    I     Atom           X                Y                Z
 ----------------------------------------------------------------
    1      C       3.8348057654    -0.4622030050     0.2756359297
    2      C       3.1221279775     0.6520413484     0.1611343485
    3      C       1.6723358477     0.7448890087     0.0485066004
    4      C       1.0897586506     1.9643903737    -0.3023323351
    5      C      -0.2766390500     2.0808644081    -0.4239753768
    6      C      -1.1269744547     1.0014608219    -0.1761089290
    7      C      -2.5693006532     1.2360230115    -0.2823505393
    8      C      -3.4898023483     0.8276939033     0.5800177237
    9      C      -0.5514728700    -0.2290998929     0.1596497789
   10      C      -1.3909323880    -1.4705841932     0.3685250194
   11      C      -0.7660364963    -2.6237051282    -0.2299059210
   12      N      -0.2703962600    -3.5367090159    -0.7069791913
   13      C       0.8257621728    -0.3390563870     0.2685478708
   14      H       4.9084949196    -0.4336041333     0.3476960286
   15      H       3.3880650857    -1.4415189075     0.2906235104
   16      H       3.6363511075     1.6051565365     0.1277592536
   17      H       1.7199561261     2.8219293870    -0.4900037247
   18      H      -0.7117189238     3.0318260104    -0.6972795397
   19      H      -2.8657022988     1.8521192696    -1.1231422971
   20      H      -3.2437503537     0.2683449592     1.4671063346
   21      H      -4.5304580701     1.0716508193     0.4485388608
   22      H      -2.3813090011    -1.3458459614    -0.0777654875
   23      H      -1.5157764998    -1.6717319487     1.4386103181
   24      H       1.2468288062    -1.2976485357     0.5326460611
 ----------------------------------------------------------------

    9    -518.5918263943      3.20e-06  Convergence criterion met
 Total energy in the final basis set =     -518.5918263943

                    Orbital Energies (a.u.)
 --------------------------------------------------------------

 Alpha MOs
 -- Occupied --
-14.3246 -10.2344 -10.2200 -10.2150 -10.2076 -10.2048 -10.2035 -10.1971
-10.1952 -10.1949 -10.1948 -10.1948 -10.1846  -0.9086  -0.8823  -0.8237
 -0.8028  -0.7768  -0.7331  -0.7235  -0.6423  -0.6221  -0.5775  -0.5682
 -0.5287  -0.5005  -0.4888  -0.4820  -0.4653  -0.4542  -0.4357  -0.4336
 -0.4237  -0.3973  -0.3828  -0.3697  -0.3579  -0.3520  -0.3489  -0.3278
 -0.3232  -0.3148  -0.2792  -0.2592  -0.2245

          Ground-State Mulliken Net Atomic Charges

     Atom                 Charge (a.u.)
  ----------------------------------------
      1 C                    -0.348211
      2 C                    -0.119842
      3 C                     0.181372
      4 C                    -0.191987
      5 C                    -0.182415
      6 C                     0.099359
      7 C                    -0.146566
      8 C                    -0.335450
      9 C                     0.111347
     10 C                    -0.422330
     11 C                     0.350945
     12 N                    -0.472219
     13 C                    -0.235114
     14 H                     0.148100
     15 H                     0.156162
     16 H                     0.129558
     17 H                     0.132484
     18 H                     0.132990
     19 H                     0.145589
     20 H                     0.150536
     21 H                     0.151541
     22 H                     0.210982
     23 H                     0.204935
     24 H                     0.148233
  ----------------------------------------
  Sum of atomic charges =     0.000000

                    Cartesian Multipole Moments
 -----------------------------------------------------------------
    Charge (ESU x 10^10)
                 0.0000
    Dipole Moment (Debye)
         X      -1.2438      Y       3.4721      Z       1.4397
       Tot       3.9592
    Quadrupole Moments (Debye-Ang)
        XX     -64.7042     XY       1.3671     YY     -86.2082
        XZ      -0.1948     YZ      -8.0447     ZZ     -77.6705

 Total job time:  33.63s(wall), 33.52s(cpu)
        *  Thank you very much for using Q-Chem.  Have a nice day.  *
